

 Parallel Execution: Process Information
 ==============================================================================
 Rank   Node Name                              NodeID   MyNodeRank  NodeMaster
    0   yumans-mbp.home                           0          0          0
    1   yumans-mbp.home                           0          1         -1
    2   yumans-mbp.home                           0          2         -1
    3   yumans-mbp.home                           0          3         -1
    4   yumans-mbp.home                           0          4         -1
    5   yumans-mbp.home                           0          5         -1
    6   yumans-mbp.home                           0          6         -1
    7   yumans-mbp.home                           0          7         -1
    8   yumans-mbp.home                           0          8         -1
    9   yumans-mbp.home                           0          9         -1
 ==============================================================================


May use up to 15625MB of RAM as shared memory on node 0

 *******************************************************************************
 *                                                                             *
 *  --------------------------------                                           *
 *   Amsterdam Modeling Suite (AMS)              2022.103                      *
 *  --------------------------------                                           *
 *                                               r104886 2022-06-17            *
 *                                                                             *
 *                                                                             *
 *                              =================                              *
 *                              |               |                              *
 *                              |     A M S     |                              *
 *                              |               |                              *
 *                              =================                              *
 *                                                                             *
 *                                                                             *
 *   Online information and documentation:  https://www.scm.com/support/       *
 *   E-mail:  support@scm.com   info@scm.com                                   *
 *                                                                             *
 *   Scientific publications using AMS results must be properly referenced     *
 *   See the User Manuals (or the web site) for recommended citations          *
 *   The terms and conditions of the End User License Agreement apply to       *
 *   the use of AMS, https://www.scm.com/license-terms/                        *
 *                                                                             *
 **********************  x86_64_darwin_intel / openmpi  ************************
 
 Licensed to: Prof Visscher, Prof Bickelhaupt, Prof Fonseca Guerra / Vrije Universiteit, Theoretische Chemie / Amsterdam / NETHERLANDS 2022-12-13 09:59:29
 SCM User ID: u21794
  
 AMS 2022.103  RunTime: Aug25-2023 09:46:38  ShM Nodes: 1  Procs: 10

 AMS jobname: ams
 AMS jobid  : 1751789840

 Start   directory: /Users/yumanhordijk/ADF_DATA/DFT_EDA/tmp.yumanhordijk.39970.0.noindex/
 Results directory: /Users/yumanhordijk/ADF_DATA/DFT_EDA/NH3BH3.results/
 Scratch directory: /tmp/amstmp_ams_kid0.1751789840/


 Communication costs MPI_COMM_WORLD:      2.323 usec per message,   0.0296 usec per 8-byte item
 Communication costs for intra-node:      2.802 usec per message,   0.0310 usec per 8-byte item

 RNG seed: 1785776241 1732694314 1612277619 1838892910 -753727779 179002779 -111538740 -288487128



                     *************************************************************************
                     *  ADF 2022.103  RunTime: Aug25-2023 09:46:40  ShM Nodes: 1  Procs: 10  *
                     *************************************************************************
  
       ****************************
       * SINGLE POINT CALCULATION *
       ****************************
 
--------
Geometry
--------
Formula: H6BN
Atoms
  Index Symbol   x (angstrom)   y (angstrom)   z (angstrom)
      1      N     0.00000000     0.00000000    -0.81474153       region=Donor
      2      B    -0.00000000    -0.00000000     0.83567034       region=Acceptor
      3      H     0.47608351    -0.82460084    -1.14410295       region=Donor
      4      H     0.47608351     0.82460084    -1.14410295       region=Donor
      5      H    -0.95216703     0.00000000    -1.14410295       region=Donor
      6      H    -0.58149793     1.00718395     1.13712667       region=Acceptor
      7      H    -0.58149793    -1.00718395     1.13712667       region=Acceptor
      8      H     1.16299585    -0.00000000     1.13712667       region=Acceptor
 
Total System Charge             0.00000
Bonding info available!
 
 
----------------
ADF Engine Input
----------------
 
 Basis
 Type TZ2P
 Core None
 End
 XC
 GGA OLYP
 End
 

 Title: *** (NO TITLE) ***

 *** adf ***



 ===========================
 A T T A C H E D   F I L E S
 ===========================
  



 ===============================
 M O D E L   P A R A M E T E R S
 ===============================
  
 DENSITY FUNCTIONAL POTENTIAL (scf)
    LDA:                               Exchange only                           == Not Default ==
    Gradient Corrections:              OPTX LYP                                == Not Default ==

 SPIN  (restricted / unrestr.)
    Molecule:                          Restricted                               
    Fragments:                         Restricted                               

 OTHER ASPECTS
    Relativistic Corrections:          scalar (ZORA,MAPA)                       

    Nuclear Charge Density Model:      Point Charge Nuclei                      
    Core Treatment:                    Frozen Orbital(s)                        

    Hyperfine or Zeeman Interaction:   ---                                      


 Fragment File(s)
 ----------------
 N:
         file : /Users/yumanhordijk/ADF_DATA/DFT_EDA/NH3BH3.results/t21.62CACDAB.N
         jobid: 0
         title: Nitrogen (TZ2P)
 B:
         file : /Users/yumanhordijk/ADF_DATA/DFT_EDA/NH3BH3.results/t21.36E2F493.B
         jobid: 0
         title: Boron (TZ2P)
 H-1:
         file : /Users/yumanhordijk/ADF_DATA/DFT_EDA/NH3BH3.results/t21.4DC4E5D.H
         jobid: 0
         title: Hydrogen (TZ2P)
 H-2:
         file : /Users/yumanhordijk/ADF_DATA/DFT_EDA/NH3BH3.results/t21.4DC4E5D.H
         jobid: 0
         title: Hydrogen (TZ2P)



 ===============
 G E O M E T R Y  ***  3D  Molecule  ***
 ===============
  

 ATOMS
 =====                            X Y Z                    CHARGE
                                (Angstrom)             Nucl     +Core       At.Mass
                       --------------------------    ----------------       -------
    1  N               0.0000    0.0000   -0.8147      7.00      7.00       14.0031
    2  B              -0.0000   -0.0000    0.8357      5.00      5.00       11.0093
    3  H               0.4761   -0.8246   -1.1441      1.00      1.00        1.0078
    4  H               0.4761    0.8246   -1.1441      1.00      1.00        1.0078
    5  H              -0.9522    0.0000   -1.1441      1.00      1.00        1.0078
    6  H              -0.5815    1.0072    1.1371      1.00      1.00        1.0078
    7  H              -0.5815   -1.0072    1.1371      1.00      1.00        1.0078
    8  H               1.1630   -0.0000    1.1371      1.00      1.00        1.0078


 FRAGMENTS
 =========                                     Atoms in this Fragment     Cart. coord.s (Angstrom)
                                               -------------------------------------------------------
    1  N                                                 1  N            0.0000    0.0000   -0.8147
    2  B                                                 2  B           -0.0000   -0.0000    0.8357
    3  H-1                                               3  H            0.4761   -0.8246   -1.1441
    4  H-1                                               4  H            0.4761    0.8246   -1.1441
    5  H-1                                               5  H           -0.9522    0.0000   -1.1441
    6  H-2                                               6  H           -0.5815    1.0072    1.1371
    7  H-2                                               7  H           -0.5815   -1.0072    1.1371
    8  H-2                                               8  H            1.1630   -0.0000    1.1371


 Interatomic Distance Matrix (Angstrom)
 --------------------------------------

   1)     0.000
   2)     1.650   0.000
   3)     1.008   2.197   0.000
   4)     1.008   2.197   1.649   0.000
   5)     1.008   2.197   1.649   1.649   0.000
   6)     2.272   1.201   3.111   2.521   2.521   0.000
   7)     2.272   1.201   2.521   3.111   2.521   2.014   0.000
   8)     2.272   1.201   2.521   2.521   3.111   2.014   2.014   0.000

 Min. Distance =    1.0075
 Max. Distance =    3.1109



 =====================================
 S Y M M E T R Y ,   E L E C T R O N S
 =====================================
  
 Symmetry: C(3V)

 Irreducible Representations, including subspecies
 -------------------------------------------------
 A1
 A2
 E1:1  E1:2


 Configuration of Valence Electrons
 ==================================
 ( determined in the SCF procedure )

 Total:   18

 Net Charge: 0 (Nuclei minus Electrons)

 Aufbau principle for MO occupations will be applied through SCF cycle no.     150
 Thereafter, the program will assign electrons to MOs that are spatially
 similar to the occupied MOs in a "reference" cycle ("KeepOrbitals").
 The reference cycle is always the PREVIOUS cycle: it will evolve with
 the SCF procedure.
1
 ***************************************************************************************************



                                      ****************************************
                                      *  B U I L D : (Fragments, Functions)  *
                                      ****************************************
  



 =======
 S F O s  ***  (Symmetrized Fragment Orbitals)  ***
 =======
  
 SFOs are linear combinations of (valence) Fragment Orbitals (FOs), such that the SFOs transform as the
 irreducible representations of the (molecular) symmetry group. Each SFO is therefore characterized by
 an irrep of the molecule and by a few (or only one) generating FOs.
 The SFOs constitute a symmetry-adapted basis for the Fock matrix. The MO eigenvector coefficients in
 this basis provide a direct interpretation of the MOs in terms of Frontier Orbital Theory.

 The SFOs are combined with auxiliary Core Functions (CFs) to ensure orthogonalization on the (frozen)
 Core Orbitals (COs). The Core-orthogonalized SFOs (CSFOs) constitute the true Fock basis.

 The FOs, and hence also the (C)SFOs are combinations of the elementary basis functions (BAS). The basis
 functions that participate in the description of the SFOs depend on the irrep. The indices of the
 involved functions are printed below for each irrep.
 (The complete list of primitive basis functions is printed in another section)

 Total nr. of (C)SFOs (summation over all irreps) :   118

 NOTE: a (C)SFO that is defined as a combination of more than one FO is usually NOT normalized.



                                       === A1 ===
 Nr. of SFOs :   38
 Cartesian basis functions that participate in this irrep (total number =    98) :
      1     2     3     4     5     8    11    14    20    15
     18    30    23    28    21    24    31    32    33    34
     35    38    41    44    50    45    48    60    53    58
     51    54    61    73    85    62    74    86    63    75
     87    66    78    90    64    65    76    77    88    72
     84    96    69    71    81    83    93    67    68    70
     79    80    82    91    94    97   109   121    98   110
    122    99   111   123   102   114   126   100   101   112
    113   124   108   120   132   105   107   117   119   129
    103   104   106   115   116   118   127   130

    SFO  (index         Fragment          Generating    Expansion in Fragment Orbitals
  indx  incl.CFs)   Occup   Orb.Energy   FragmentType  Coeff.   Orbital     on Fragment
 --------------------------------------------------------------------------------------
     1       1      2.000     -14.154 au  N             1.00      1 S               1
                        (    -385.144 eV)
     2       2      2.000      -0.687 au  N             1.00      2 S               1
                        (     -18.694 eV)
     3       3       --         0.529 au  N             1.00      3 S               1
                        (      14.408 eV)
     4       4       --         6.921 au  N             1.00      4 S               1
                        (     188.327 eV)
     5       5       --        63.573 au  N             1.00      5 S               1
                        (    1729.900 eV)
     6       6      1.000      -0.256 au  N             1.00      1 P:z             1
                        (      -6.963 eV)
     7       7       --         0.286 au  N             1.00      2 P:z             1
                        (       7.772 eV)
     8       8       --         3.321 au  N             1.00      3 P:z             1
                        (      90.361 eV)
     9       9       --         1.243 au  N             1.00      1 D:z2            1
                        (      33.812 eV)
    10      10       --         3.998 au  N             1.00      1 F:z3            1
                        (     108.788 eV)
    11      11       --         3.998 au  N             1.00      1 F:x             1
                        (     108.788 eV)
    12      12      2.000      -6.653 au  B             1.00      1 S               2
                        (    -181.037 eV)
    13      13      2.000      -0.346 au  B             1.00      2 S               2
                        (      -9.402 eV)
    14      14       --         0.207 au  B             1.00      3 S               2
                        (       5.623 eV)
    15      15       --         2.604 au  B             1.00      4 S               2
                        (      70.869 eV)
    16      16       --        26.790 au  B             1.00      5 S               2
                        (     728.990 eV)
    17      17      0.333      -0.126 au  B             1.00      1 P:z             2
                        (      -3.435 eV)
    18      18       --         0.121 au  B             1.00      2 P:z             2
                        (       3.297 eV)
    19      19       --         1.701 au  B             1.00      3 P:z             2
                        (      46.283 eV)
    20      20       --         1.038 au  B             1.00      1 D:z2            2
                        (      28.243 eV)
    21      21       --         3.345 au  B             1.00      1 F:z3            2
                        (      91.031 eV)
    22      22       --         3.345 au  B             1.00      1 F:x             2
                        (      91.031 eV)
    23      23      1.000      -0.238 au  H-1           0.58      1 S               3
                        (      -6.484 eV)               0.58      1 S               4
                                                        0.58      1 S               5
    24      24       --         0.077 au  H-1           0.58      2 S               3
                        (       2.096 eV)               0.58      2 S               4
                                                        0.58      2 S               5
    25      25       --         1.521 au  H-1           0.58      3 S               3
                        (      41.380 eV)               0.58      3 S               4
                                                        0.58      3 S               5
    26      26       --         0.410 au  H-1           0.29      1 P:x             3
                        (      11.162 eV)              -0.50      1 P:y             3
                                                        0.29      1 P:x             4
                                                        0.50      1 P:y             4
                                                       -0.58      1 P:x             5
    27      27       --         0.410 au  H-1           0.58      1 P:z             3
                        (      11.162 eV)               0.58      1 P:z             4
                                                        0.58      1 P:z             5
    28      28       --         2.567 au  H-1           0.58      1 D:z2            3
                        (      69.838 eV)               0.58      1 D:z2            4
                                                        0.58      1 D:z2            5
    29      29       --         2.567 au  H-1           0.29      1 D:x2-y2         3
                        (      69.838 eV)               0.50      1 D:xy            3
                                                        0.29      1 D:x2-y2         4
                                                       -0.50      1 D:xy            4
                                                       -0.58      1 D:x2-y2         5
    30      30       --         2.567 au  H-1           0.29      1 D:xz            3
                        (      69.838 eV)              -0.50      1 D:yz            3
                                                        0.29      1 D:xz            4
                                                        0.50      1 D:yz            4
                                                       -0.58      1 D:xz            5
    31      31      1.000      -0.238 au  H-2           0.58      1 S               6
                        (      -6.484 eV)               0.58      1 S               7
                                                        0.58      1 S               8
    32      32       --         0.077 au  H-2           0.58      2 S               6
                        (       2.096 eV)               0.58      2 S               7
                                                        0.58      2 S               8
    33      33       --         1.521 au  H-2           0.58      3 S               6
                        (      41.380 eV)               0.58      3 S               7
                                                        0.58      3 S               8
    34      34       --         0.410 au  H-2           0.29      1 P:x             6
                        (      11.162 eV)              -0.50      1 P:y             6
                                                        0.29      1 P:x             7
                                                        0.50      1 P:y             7
                                                       -0.58      1 P:x             8
    35      35       --         0.410 au  H-2           0.58      1 P:z             6
                        (      11.162 eV)               0.58      1 P:z             7
                                                        0.58      1 P:z             8
    36      36       --         2.567 au  H-2           0.58      1 D:z2            6
                        (      69.838 eV)               0.58      1 D:z2            7
                                                        0.58      1 D:z2            8
    37      37       --         2.567 au  H-2           0.29      1 D:x2-y2         6
                        (      69.838 eV)               0.50      1 D:xy            6
                                                        0.29      1 D:x2-y2         7
                                                       -0.50      1 D:xy            7
                                                       -0.58      1 D:x2-y2         8
    38      38       --         2.567 au  H-2           0.29      1 D:xz            6
                        (      69.838 eV)              -0.50      1 D:yz            6
                                                        0.29      1 D:xz            7
                                                        0.50      1 D:yz            7
                                                       -0.58      1 D:xz            8



                                       === A2 ===
 Nr. of SFOs :    8
 Cartesian basis functions that participate in this irrep (total number =    38) :
     22    27    52    57    64    65    76    77    89    69
     71    81    83    95    67    68    70    79    80    82
     92   100   101   112   113   125   105   107   117   119
    131   103   104   106   115   116   118   128

    SFO  (index         Fragment          Generating    Expansion in Fragment Orbitals
  indx  incl.CFs)   Occup   Orb.Energy   FragmentType  Coeff.   Orbital     on Fragment
 --------------------------------------------------------------------------------------
     1       1       --         3.998 au  N             1.00      1 F:y             1
                        (     108.788 eV)
     2       2       --         3.345 au  B             1.00      1 F:y             2
                        (      91.031 eV)
     3       3       --         0.410 au  H-1           0.50      1 P:x             3
                        (      11.162 eV)               0.29      1 P:y             3
                                                       -0.50      1 P:x             4
                                                        0.29      1 P:y             4
                                                       -0.58      1 P:y             5
     4       4       --         2.567 au  H-1           0.50      1 D:x2-y2         3
                        (      69.838 eV)              -0.29      1 D:xy            3
                                                       -0.50      1 D:x2-y2         4
                                                       -0.29      1 D:xy            4
                                                        0.58      1 D:xy            5
     5       5       --         2.567 au  H-1           0.50      1 D:xz            3
                        (      69.838 eV)               0.29      1 D:yz            3
                                                       -0.50      1 D:xz            4
                                                        0.29      1 D:yz            4
                                                       -0.58      1 D:yz            5
     6       6       --         0.410 au  H-2           0.50      1 P:x             6
                        (      11.162 eV)               0.29      1 P:y             6
                                                       -0.50      1 P:x             7
                                                        0.29      1 P:y             7
                                                       -0.58      1 P:y             8
     7       7       --         2.567 au  H-2           0.50      1 D:x2-y2         6
                        (      69.838 eV)              -0.29      1 D:xy            6
                                                       -0.50      1 D:x2-y2         7
                                                       -0.29      1 D:xy            7
                                                        0.58      1 D:xy            8
     8       8       --         2.567 au  H-2           0.50      1 D:xz            6
                        (      69.838 eV)               0.29      1 D:yz            6
                                                       -0.50      1 D:xz            7
                                                        0.29      1 D:yz            7
                                                       -0.58      1 D:yz            8



                                       === E1:1 ===
 Nr. of SFOs :   36
 Cartesian basis functions that participate in this irrep (total number =    88) :
      6     9    12    17    15    18    26    23    28    21
     24    36    39    42    47    45    48    56    53    58
     51    54    61    73    85    62    74    86    63    75
     87    66    78    90    64    65    76    77    88    72
     84    96    69    71    81    83    93    67    68    70
     79    80    82    91    94    97   109   121    98   110
    122    99   111   123   102   114   126   100   101   112
    113   124   108   120   132   105   107   117   119   129
    103   104   106   115   116   118   127   130

    SFO  (index         Fragment          Generating    Expansion in Fragment Orbitals
  indx  incl.CFs)   Occup   Orb.Energy   FragmentType  Coeff.   Orbital     on Fragment
 --------------------------------------------------------------------------------------
     1       1      1.000      -0.256 au  N             1.00      1 P:x             1
                        (      -6.963 eV)
     2       2       --         0.286 au  N             1.00      2 P:x             1
                        (       7.772 eV)
     3       3       --         3.321 au  N             1.00      3 P:x             1
                        (      90.361 eV)
     4       4       --         1.243 au  N             1.00      1 D:x2-y2         1
                        (      33.812 eV)
     5       5       --         1.243 au  N             1.00      1 D:xz            1
                        (      33.812 eV)
     6       6       --         3.998 au  N             1.00      1 F:z             1
                        (     108.788 eV)
     7       7       --         3.998 au  N             1.00      1 F:z2x           1
                        (     108.788 eV)
     8       8      0.333      -0.126 au  B             1.00      1 P:x             2
                        (      -3.435 eV)
     9       9       --         0.121 au  B             1.00      2 P:x             2
                        (       3.297 eV)
    10      10       --         1.701 au  B             1.00      3 P:x             2
                        (      46.283 eV)
    11      11       --         1.038 au  B             1.00      1 D:x2-y2         2
                        (      28.243 eV)
    12      12       --         1.038 au  B             1.00      1 D:xz            2
                        (      28.243 eV)
    13      13       --         3.345 au  B             1.00      1 F:z             2
                        (      91.031 eV)
    14      14       --         3.345 au  B             1.00      1 F:z2x           2
                        (      91.031 eV)
    15      15      1.000      -0.238 au  H-1           0.41      1 S               3
                        (      -6.484 eV)               0.41      1 S               4
                                                       -0.82      1 S               5
    16      16       --         0.077 au  H-1           0.41      2 S               3
                        (       2.096 eV)               0.41      2 S               4
                                                       -0.82      2 S               5
    17      17       --         1.521 au  H-1           0.41      3 S               3
                        (      41.380 eV)               0.41      3 S               4
                                                       -0.82      3 S               5
    18      18       --         0.410 au  H-1           0.65      1 P:x             3
                        (      11.162 eV)               0.22      1 P:y             3
                                                        0.65      1 P:x             4
                                                       -0.22      1 P:y             4
                                                        0.26      1 P:x             5
    19      19       --         0.410 au  H-1           0.45      1 P:y             3
                        (      11.162 eV)              -0.45      1 P:y             4
                                                       -0.77      1 P:x             5
    20      20       --         0.410 au  H-1           0.41      1 P:z             3
                        (      11.162 eV)               0.41      1 P:z             4
                                                       -0.82      1 P:z             5
    21      21       --         2.567 au  H-1           0.41      1 D:z2            3
                        (      69.838 eV)               0.41      1 D:z2            4
                                                       -0.82      1 D:z2            5
    22      22       --         2.567 au  H-1           0.65      1 D:x2-y2         3
                        (      69.838 eV)              -0.22      1 D:xy            3
                                                        0.65      1 D:x2-y2         4
                                                        0.22      1 D:xy            4
                                                        0.26      1 D:x2-y2         5
    23      23       --         2.567 au  H-1           0.45      1 D:xy            3
                        (      69.838 eV)              -0.45      1 D:xy            4
                                                        0.77      1 D:x2            5
    24      24       --         2.567 au  H-1           0.65      1 D:xz            3
                        (      69.838 eV)               0.22      1 D:yz            3
                                                        0.65      1 D:xz            4
                                                       -0.22      1 D:yz            4
                                                        0.26      1 D:xz            5
    25      25       --         2.567 au  H-1           0.45      1 D:yz            3
                        (      69.838 eV)              -0.45      1 D:yz            4
                                                       -0.77      1 D:xz            5
    26      26      1.000      -0.238 au  H-2           0.41      1 S               6
                        (      -6.484 eV)               0.41      1 S               7
                                                       -0.82      1 S               8
    27      27       --         0.077 au  H-2           0.41      2 S               6
                        (       2.096 eV)               0.41      2 S               7
                                                       -0.82      2 S               8
    28      28       --         1.521 au  H-2           0.41      3 S               6
                        (      41.380 eV)               0.41      3 S               7
                                                       -0.82      3 S               8
    29      29       --         0.410 au  H-2           0.65      1 P:x             6
                        (      11.162 eV)               0.22      1 P:y             6
                                                        0.65      1 P:x             7
                                                       -0.22      1 P:y             7
                                                        0.26      1 P:x             8
    30      30       --         0.410 au  H-2           0.45      1 P:y             6
                        (      11.162 eV)              -0.45      1 P:y             7
                                                       -0.77      1 P:x             8
    31      31       --         0.410 au  H-2           0.41      1 P:z             6
                        (      11.162 eV)               0.41      1 P:z             7
                                                       -0.82      1 P:z             8
    32      32       --         2.567 au  H-2           0.41      1 D:z2            6
                        (      69.838 eV)               0.41      1 D:z2            7
                                                       -0.82      1 D:z2            8
    33      33       --         2.567 au  H-2           0.65      1 D:x2-y2         6
                        (      69.838 eV)              -0.22      1 D:xy            6
                                                        0.65      1 D:x2-y2         7
                                                        0.22      1 D:xy            7
                                                        0.26      1 D:x2-y2         8
    34      34       --         2.567 au  H-2           0.45      1 D:xy            6
                        (      69.838 eV)              -0.45      1 D:xy            7
                                                        0.77      1 D:x2            8
    35      35       --         2.567 au  H-2           0.65      1 D:xz            6
                        (      69.838 eV)               0.22      1 D:yz            6
                                                        0.65      1 D:xz            7
                                                       -0.22      1 D:yz            7
                                                        0.26      1 D:xz            8
    36      36       --         2.567 au  H-2           0.45      1 D:yz            6
                        (      69.838 eV)              -0.45      1 D:yz            7
                                                       -0.77      1 D:xz            8



                                       === E1:2 ===
 Nr. of SFOs :   36
 Cartesian basis functions that participate in this irrep (total number =    72) :
      7    10    13    19    16    29    25    22    27    37
     40    43    49    46    59    55    52    57    61    73
     62    74    63    75    66    78    64    65    76    77
     89    72    84    69    71    81    83    95    67    68
     70    79    80    82    92    97   109    98   110    99
    111   102   114   100   101   112   113   125   108   120
    105   107   117   119   131   103   104   106   115   116
    118   128

    SFO  (index         Fragment          Generating    Expansion in Fragment Orbitals
  indx  incl.CFs)   Occup   Orb.Energy   FragmentType  Coeff.   Orbital     on Fragment
 --------------------------------------------------------------------------------------
     1       1      1.000      -0.256 au  N             1.00      1 P:y             1
                        (      -6.963 eV)
     2       2       --         0.286 au  N             1.00      2 P:y             1
                        (       7.772 eV)
     3       3       --         3.321 au  N             1.00      3 P:y             1
                        (      90.361 eV)
     4       4       --         1.243 au  N            -1.00      1 D:xy            1
                        (      33.812 eV)
     5       5       --         1.243 au  N             1.00      1 D:yz            1
                        (      33.812 eV)
     6       6       --         3.998 au  N            -1.00      1 F:xyz           1
                        (     108.788 eV)
     7       7       --         3.998 au  N             1.00      1 F:z2y           1
                        (     108.788 eV)
     8       8      0.333      -0.126 au  B             1.00      1 P:y             2
                        (      -3.435 eV)
     9       9       --         0.121 au  B             1.00      2 P:y             2
                        (       3.297 eV)
    10      10       --         1.701 au  B             1.00      3 P:y             2
                        (      46.283 eV)
    11      11       --         1.038 au  B            -1.00      1 D:xy            2
                        (      28.243 eV)
    12      12       --         1.038 au  B             1.00      1 D:yz            2
                        (      28.243 eV)
    13      13       --         3.345 au  B            -1.00      1 F:xyz           2
                        (      91.031 eV)
    14      14       --         3.345 au  B             1.00      1 F:z2y           2
                        (      91.031 eV)
    15      15      1.000      -0.238 au  H-1          -0.71      1 S               3
                        (      -6.484 eV)               0.71      1 S               4
    16      16       --         0.077 au  H-1          -0.71      2 S               3
                        (       2.096 eV)               0.71      2 S               4
    17      17       --         1.521 au  H-1          -0.71      3 S               3
                        (      41.380 eV)               0.71      3 S               4
    18      18       --         0.410 au  H-1           0.22      1 P:x             3
                        (      11.162 eV)               0.39      1 P:y             3
                                                       -0.22      1 P:x             4
                                                        0.39      1 P:y             4
                                                        0.77      1 P:y             5
    19      19       --         0.410 au  H-1           0.45      1 P:x             3
                        (      11.162 eV)              -0.52      1 P:y             3
                                                       -0.45      1 P:x             4
                                                       -0.52      1 P:y             4
                                                        0.26      1 P:y             5
    20      20       --         0.410 au  H-1          -0.71      1 P:z             3
                        (      11.162 eV)               0.71      1 P:z             4
    21      21       --         2.567 au  H-1          -0.71      1 D:z2            3
                        (      69.838 eV)               0.71      1 D:z2            4
    22      22       --         2.567 au  H-1           0.22      1 D:x2-y2         3
                        (      69.838 eV)              -0.39      1 D:xy            3
                                                       -0.22      1 D:x2-y2         4
                                                       -0.39      1 D:xy            4
                                                       -0.77      1 D:xy            5
    23      23       --         2.567 au  H-1          -0.45      1 D:x2-y2         3
                        (      69.838 eV)              -0.52      1 D:xy            3
                                                        0.45      1 D:x2-y2         4
                                                       -0.52      1 D:xy            4
                                                        0.26      1 D:xy            5
    24      24       --         2.567 au  H-1           0.22      1 D:xz            3
                        (      69.838 eV)               0.39      1 D:yz            3
                                                       -0.22      1 D:xz            4
                                                        0.39      1 D:yz            4
                                                        0.77      1 D:yz            5
    25      25       --         2.567 au  H-1           0.45      1 D:xz            3
                        (      69.838 eV)              -0.52      1 D:yz            3
                                                       -0.45      1 D:xz            4
                                                       -0.52      1 D:yz            4
                                                        0.26      1 D:yz            5
    26      26      1.000      -0.238 au  H-2          -0.71      1 S               6
                        (      -6.484 eV)               0.71      1 S               7
    27      27       --         0.077 au  H-2          -0.71      2 S               6
                        (       2.096 eV)               0.71      2 S               7
    28      28       --         1.521 au  H-2          -0.71      3 S               6
                        (      41.380 eV)               0.71      3 S               7
    29      29       --         0.410 au  H-2           0.22      1 P:x             6
                        (      11.162 eV)               0.39      1 P:y             6
                                                       -0.22      1 P:x             7
                                                        0.39      1 P:y             7
                                                        0.77      1 P:y             8
    30      30       --         0.410 au  H-2           0.45      1 P:x             6
                        (      11.162 eV)              -0.52      1 P:y             6
                                                       -0.45      1 P:x             7
                                                       -0.52      1 P:y             7
                                                        0.26      1 P:y             8
    31      31       --         0.410 au  H-2          -0.71      1 P:z             6
                        (      11.162 eV)               0.71      1 P:z             7
    32      32       --         2.567 au  H-2          -0.71      1 D:z2            6
                        (      69.838 eV)               0.71      1 D:z2            7
    33      33       --         2.567 au  H-2           0.22      1 D:x2-y2         6
                        (      69.838 eV)              -0.39      1 D:xy            6
                                                       -0.22      1 D:x2-y2         7
                                                       -0.39      1 D:xy            7
                                                       -0.77      1 D:xy            8
    34      34       --         2.567 au  H-2          -0.45      1 D:x2-y2         6
                        (      69.838 eV)              -0.52      1 D:xy            6
                                                        0.45      1 D:x2-y2         7
                                                       -0.52      1 D:xy            7
                                                        0.26      1 D:xy            8
    35      35       --         2.567 au  H-2           0.22      1 D:xz            6
                        (      69.838 eV)               0.39      1 D:yz            6
                                                       -0.22      1 D:xz            7
                                                        0.39      1 D:yz            7
                                                        0.77      1 D:yz            8
    36      36       --         2.567 au  H-2           0.45      1 D:xz            6
                        (      69.838 eV)              -0.52      1 D:yz            6
                                                       -0.45      1 D:xz            7
                                                       -0.52      1 D:yz            7
                                                        0.26      1 D:yz            8



 ================================
 (Slater-type)  F U N C T I O N S  ***  (Basis and Fit)  ***
 ================================
  

 Atom Type    1  (N)
 ==============

 Valence Basis Sets:  10
 -----------------------
   1 S    8.740000
   1 S    5.900000
   2 S    5.150000
   2 S    2.500000
   2 S    1.500000
   2 P    3.680000
   2 P    1.880000
   2 P    1.000000
   3 D    2.200000
   4 F    3.300000

 Atom Type    2  (B)
 ==============

 Valence Basis Sets:  10
 -----------------------
   1 S    6.500000
   1 S    4.080000
   2 S    2.800000
   2 S    1.700000
   2 S    1.040000
   2 P    2.600000
   2 P    1.260000
   2 P    0.680000
   3 D    2.000000
   4 F    3.000000

 Atom Type    3  (H)
 ==============

 Valence Basis Sets:   5
 -----------------------
   1 S    0.690000
   1 S    0.920000
   1 S    1.580000
   2 P    1.250000
   3 D    2.500000

 Atom Type    4  (H)
 ==============

 Valence Basis Sets:   5
 -----------------------
   1 S    0.690000
   1 S    0.920000
   1 S    1.580000
   2 P    1.250000
   3 D    2.500000


 BAS: List of all Elementary Cartesian Basis Functions
 =====================================================

 The numbering in the list below (to the right of the function characteristics) is referred
 to in print-outs of MO eigenvectors and Mulliken populations in the BAS representation
 (as contrasted to the SFO representation).

 Notes:
 1. The functions are characterized by a polynomial prefactor (powers of x,y,z and r) and
    an exponential decay factor alpha.
 2. Since the basis sets are specific for an atom TYPE, the individual functions occur on
    all atoms of that type.
 3. The word 'Core' in the left margin signals that it is a Core Function (CF) : not a
    degree of freedom in the valence set, but only used to ensure orthogonalization of
    the other valence basis functions on the frozen Core Orbitals.


 (power of) X  Y  Z  R     Alpha  on Atom
            ==========     =====     ==========

 N                                    1
                                  ---------------------------------------------------------------------------
            0  0  0  0     8.740      1
            0  0  0  0     5.900      2
            0  0  0  1     5.150      3
            0  0  0  1     2.500      4
            0  0  0  1     1.500      5
            1  0  0  0     3.680      6
            0  1  0  0     3.680      7
            0  0  1  0     3.680      8
            1  0  0  0     1.880      9
            0  1  0  0     1.880     10
            0  0  1  0     1.880     11
            1  0  0  0     1.000     12
            0  1  0  0     1.000     13
            0  0  1  0     1.000     14
            2  0  0  0     2.200     15
            1  1  0  0     2.200     16
            1  0  1  0     2.200     17
            0  2  0  0     2.200     18
            0  1  1  0     2.200     19
            0  0  2  0     2.200     20
            3  0  0  0     3.300     21
            2  1  0  0     3.300     22
            2  0  1  0     3.300     23
            1  2  0  0     3.300     24
            1  1  1  0     3.300     25
            1  0  2  0     3.300     26
            0  3  0  0     3.300     27
            0  2  1  0     3.300     28
            0  1  2  0     3.300     29
            0  0  3  0     3.300     30

 B                                    2
                                  ---------------------------------------------------------------------------
            0  0  0  0     6.500     31
            0  0  0  0     4.080     32
            0  0  0  1     2.800     33
            0  0  0  1     1.700     34
            0  0  0  1     1.040     35
            1  0  0  0     2.600     36
            0  1  0  0     2.600     37
            0  0  1  0     2.600     38
            1  0  0  0     1.260     39
            0  1  0  0     1.260     40
            0  0  1  0     1.260     41
            1  0  0  0     0.680     42
            0  1  0  0     0.680     43
            0  0  1  0     0.680     44
            2  0  0  0     2.000     45
            1  1  0  0     2.000     46
            1  0  1  0     2.000     47
            0  2  0  0     2.000     48
            0  1  1  0     2.000     49
            0  0  2  0     2.000     50
            3  0  0  0     3.000     51
            2  1  0  0     3.000     52
            2  0  1  0     3.000     53
            1  2  0  0     3.000     54
            1  1  1  0     3.000     55
            1  0  2  0     3.000     56
            0  3  0  0     3.000     57
            0  2  1  0     3.000     58
            0  1  2  0     3.000     59
            0  0  3  0     3.000     60

 H                                    3    4    5
                                  ---------------------------------------------------------------------------
            0  0  0  0     0.690     61   73   85
            0  0  0  0     0.920     62   74   86
            0  0  0  0     1.580     63   75   87
            1  0  0  0     1.250     64   76   88
            0  1  0  0     1.250     65   77   89
            0  0  1  0     1.250     66   78   90
            2  0  0  0     2.500     67   79   91
            1  1  0  0     2.500     68   80   92
            1  0  1  0     2.500     69   81   93
            0  2  0  0     2.500     70   82   94
            0  1  1  0     2.500     71   83   95
            0  0  2  0     2.500     72   84   96

 H                                    6    7    8
                                  ---------------------------------------------------------------------------
            0  0  0  0     0.690     97  109  121
            0  0  0  0     0.920     98  110  122
            0  0  0  0     1.580     99  111  123
            1  0  0  0     1.250    100  112  124
            0  1  0  0     1.250    101  113  125
            0  0  1  0     1.250    102  114  126
            2  0  0  0     2.500    103  115  127
            1  1  0  0     2.500    104  116  128
            1  0  1  0     2.500    105  117  129
            0  2  0  0     2.500    106  118  130
            0  1  1  0     2.500    107  119  131
            0  0  2  0     2.500    108  120  132

 Total number of charge fitting functions (nprimf)       468
 Total number of Cartesian basis functions (naos)        132
 Total number of Cartesian core functions  (ncos)          0

1
 ***************************************************************************************************



                                              ***********************
                                              *  T E C H N I C A L  *
                                              ***********************
  



 =============================================================
 P A R A L L E L I Z A T I O N  and  V E C T O R I Z A T I O N
 =============================================================
  
 Nr of parallel processes:                               10
 Maximum vector length in NumInt loops:                 128



 =====================
 S C F   U P D A T E S
 =====================
  
 Max. nr. of cycles:                               300
 Convergence criterion:                              0.0000010000
   secondary criterion:                              0.0010000000

 Mix parameter (when DIIS does not apply):           0.2000000000
 Mixed ADIIS+SDIIS will be used                  
    Max number of expansion vectors:                10
    Pure ADIIS when Max([F,P]) is above              0.1000000000
    Pure SDIIS when Max([F,P]) is below              0.0010000000
 Automatic ElectronSmearing (in case of problematic SCF convergence) disabled



 =================
 P R E C I S I O N  ***  (General: NumInt, NeglectFunctionTails, ...)  ***
 =================
  

 NumInt:           Target precision:                 4.0000000000
 -------           Initial precision:                4.0000000000
                   Min. precision (optimization):    4.0000000000

 Neglect Functions:          Basis functions:        0.1000000000E-05
 ------------------          Fit functions:          0.1000000000E-05



 ===========================
 L I N E A R   S C A L I N G
 ===========================
  

 Cut-off radii density fit:                        0.1000000000E-07
 Overlap cut-off criterion AO matrix elements:     0.1000000000E-05
 Cut-offs for Coulomb potential and fitted density:0.1000000000E-07
 Cut-off criterion for Coulomb multipole terms:    0.1000000000E-07
 Progressive Convergence parameter:                 0.000000000    
1
 ***************************************************************************************************



                                            ***************************
                                            *  C O M P U T A T I O N  *
                                            ***************************
  

 Number of elements of the density matrix on this node (used, total):       465      8778



 ===========================================
 Numerical Integration : Fuzzy Cells (Becke)
 ===========================================
  
 Becke grid quality: NORMAL         
  
 Lebedev angular grid order:             min:  11 max:  23
 Nr. of radial points:                   min:  46 max:  55

 Total nr. of points:      14432
 Nr. of blocks:              113
 Block length:               128
 Nr. of dummy points:         32


 Test of Precision of the Numerical Integration Grid
 ===================================================

 Integral of the Total Core Density:                   0.00000000000000



 ========================
 Density Fitting (zlmFit)
 ========================
  
 ZlmFit Fit Quality: NORMAL         
  
 Max L-expansion:                        min:   6 max:   7
 Nr. of radial interpolation points:     min:  39 max:  48



 =====
 S C F  ***  ScaSCF  ***
 =====
  
 Initial density matrix is calculated as sum of fragments

 CYCLE    1
 SCF Error: norm([F,P])=      3.632416753644, max([F,P])=      2.340213755686
 orbitals (Q,E):
 ---------------
 A1 :1...15          ( 2.00   -14.3320)  ( 2.00    -6.7384)  ( 2.00    -1.0271)  ( 2.00    -0.6509)
                     ( 2.00    -0.5055)  ( 0.00    -0.0838)  ( 0.00    -0.0306)  ( 0.00     0.0017)
                     ( 0.00     0.0935)  ( 0.00     0.1672)  ( 0.00     0.2275)  ( 0.00     0.3661)
                     ( 0.00     0.4485)  ( 0.00     0.7456)  ( 0.00     1.0235)
 A2 :1...8           ( 0.00     0.6141)  ( 0.00     0.8155)  ( 0.00     2.5211)  ( 0.00     2.8296)
                     ( 0.00     2.8837)  ( 0.00     3.5890)  ( 0.00     5.7292)  ( 0.00     6.6991)
 E1 :1...12          ( 4.00    -0.6364)  ( 4.00    -0.4439)  ( 0.00    -0.0118)  ( 0.00     0.0170)
                     ( 0.00     0.0684)  ( 0.00     0.1276)  ( 0.00     0.2710)  ( 0.00     0.3165)
                     ( 0.00     0.3686)  ( 0.00     0.6026)  ( 0.00     0.6704)  ( 0.00     1.0556)

 CYCLE    2
  SDIIS (wt  0.000):  0.0613  0.9387
 A-DIIS (wt  1.000):  0.7773  0.2227
  DIIS coefficients:  0.7773  0.2227
 SCF Error: norm([F,P])=      0.739887618881, max([F,P])=      0.278119160616
 orbitals (Q,E):
 ---------------
 A1 :1...6           ( 2.00   -14.1918)  ( 2.00    -6.6026)  ( 2.00    -0.9591)  ( 2.00    -0.5708)
                     ( 2.00    -0.4245)  ( 0.00    -0.0636)
 A2 :1...1           ( 0.00     0.6590)
 E1 :1...3           ( 4.00    -0.5771)  ( 4.00    -0.3670)  ( 0.00     0.0014)

 CYCLE    3
  SDIIS (wt  0.000):  0.0092 -0.8790  1.8698
 A-DIIS (wt  1.000):  0.6929  0.0000  0.3071
  DIIS coefficients:  0.6929  0.0000  0.3071
 SCF Error: norm([F,P])=      0.377744130265, max([F,P])=      0.132202381220
 orbitals (Q,E):
 ---------------
 A1 :1...6           ( 2.00   -14.2048)  ( 2.00    -6.5940)  ( 2.00    -0.9590)  ( 2.00    -0.5626)
                     ( 2.00    -0.4177)  ( 0.00    -0.0635)
 A2 :1...1           ( 0.00     0.6686)
 E1 :1...3           ( 4.00    -0.5766)  ( 4.00    -0.3534)  ( 0.00     0.0005)

 CYCLE    4
  SDIIS (wt  0.000): -1.0558 -0.9442  3.0000
 A-DIIS (wt  1.000):  0.0000  0.0000  1.0000
  DIIS coefficients:  0.0000  0.0000  1.0000
 SCF Error: norm([F,P])=      0.384477127107, max([F,P])=      0.142551117219
 orbitals (Q,E):
 ---------------
 A1 :1...6           ( 2.00   -13.8960)  ( 2.00    -6.2760)  ( 2.00    -0.8051)  ( 2.00    -0.3710)
                     ( 2.00    -0.2267)  ( 0.00    -0.0426)
 A2 :1...1           ( 0.00     0.7739)
 E1 :1...3           ( 4.00    -0.4464)  ( 4.00    -0.1657)  ( 0.00     0.0211)

 CYCLE    5
  SDIIS (wt  0.000): -0.3119 -1.5178  2.5264  0.3032
 A-DIIS (wt  1.000):  0.0000  0.0000  0.6506  0.3494
  DIIS coefficients:  0.0000  0.0000  0.6506  0.3494
 SCF Error: norm([F,P])=      0.585675170454, max([F,P])=      0.232801927747
 orbitals (Q,E):
 ---------------
 A1 :1...6           ( 2.00   -14.0862)  ( 2.00    -6.4206)  ( 2.00    -0.8799)  ( 2.00    -0.4498)
                     ( 2.00    -0.2987)  ( 0.00    -0.0548)
 A2 :1...1           ( 0.00     0.7464)
 E1 :1...3           ( 4.00    -0.5072)  ( 4.00    -0.2216)  ( 0.00     0.0077)

 CYCLE    6
  SDIIS (wt  0.840):  0.1125  1.0234 -1.1457 -0.0498  1.0597
 A-DIIS (wt  0.160):  0.0000  0.0000  0.0000  0.0000  1.0000
  DIIS coefficients:  0.0944  0.8591 -0.9619 -0.0418  1.0501
 SCF Error: norm([F,P])=      0.060725088384, max([F,P])=      0.016889030394
 orbitals (Q,E):
 ---------------
 A1 :1...6           ( 2.00   -14.0925)  ( 2.00    -6.4569)  ( 2.00    -0.8798)  ( 2.00    -0.4598)
                     ( 2.00    -0.3127)  ( 0.00    -0.0541)
 A2 :1...1           ( 0.00     0.7395)
 E1 :1...3           ( 4.00    -0.5062)  ( 4.00    -0.2393)  ( 0.00     0.0082)

 CYCLE    7
  SDIIS (wt  0.949): -0.0515 -0.2293  0.3724  0.0245  0.2073  0.6766
 A-DIIS (wt  0.051):  0.0000  0.0000  0.0000  0.0000  0.0000  1.0000
  DIIS coefficients: -0.0489 -0.2177  0.3535  0.0233  0.1967  0.6931
 SCF Error: norm([F,P])=      0.018368478754, max([F,P])=      0.006037384594
 orbitals (Q,E):
 ---------------
 A1 :1...6           ( 2.00   -14.0932)  ( 2.00    -6.4466)  ( 2.00    -0.8803)  ( 2.00    -0.4577)
                     ( 2.00    -0.3100)  ( 0.00    -0.0543)
 A2 :1...1           ( 0.00     0.7409)
 E1 :1...3           ( 4.00    -0.5068)  ( 4.00    -0.2359)  ( 0.00     0.0078)

 CYCLE    8
  SDIIS (wt  1.000): -0.0037 -0.0083  0.0181 -0.0002  0.0406  0.1568  0.7968
  DIIS coefficients: -0.0037 -0.0083  0.0181 -0.0002  0.0406  0.1568  0.7968
 SCF Error: norm([F,P])=      0.001632298308, max([F,P])=      0.000594832600
 orbitals (Q,E):
 ---------------
 A1 :1...6           ( 2.00   -14.0930)  ( 2.00    -6.4475)  ( 2.00    -0.8805)  ( 2.00    -0.4579)
                     ( 2.00    -0.3102)  ( 0.00    -0.0544)
 A2 :1...1           ( 0.00     0.7408)
 E1 :1...3           ( 4.00    -0.5069)  ( 4.00    -0.2360)  ( 0.00     0.0077)

 CYCLE    9
  SDIIS (wt  1.000): -0.0003 -0.0013  0.0019  0.0001  0.0018  0.0180  0.1593  0.8205
  DIIS coefficients: -0.0003 -0.0013  0.0019  0.0001  0.0018  0.0180  0.1593  0.8205
 SCF Error: norm([F,P])=      0.000151287328, max([F,P])=      0.000048448285
 orbitals (Q,E):
 ---------------
 A1 :1...6           ( 2.00   -14.0930)  ( 2.00    -6.4474)  ( 2.00    -0.8804)  ( 2.00    -0.4579)
                     ( 2.00    -0.3101)  ( 0.00    -0.0544)
 A2 :1...1           ( 0.00     0.7408)
 E1 :1...3           ( 4.00    -0.5069)  ( 4.00    -0.2360)  ( 0.00     0.0077)

 CYCLE   10
  SDIIS (wt  1.000):  0.0001  0.0003 -0.0005 -0.0000 -0.0004 -0.0000  0.0115  0.1476  0.8415
  DIIS coefficients:  0.0001  0.0003 -0.0005 -0.0000 -0.0004 -0.0000  0.0115  0.1476  0.8415
 SCF Error: norm([F,P])=      0.000018557017, max([F,P])=      0.000004597850
 orbitals (Q,E):
 ---------------
 A1 :1...6           ( 2.00   -14.0930)  ( 2.00    -6.4474)  ( 2.00    -0.8804)  ( 2.00    -0.4579)
                     ( 2.00    -0.3101)  ( 0.00    -0.0544)
 A2 :1...1           ( 0.00     0.7408)
 E1 :1...3           ( 4.00    -0.5069)  ( 4.00    -0.2360)  ( 0.00     0.0077)

 CYCLE   11
  SDIIS (wt  1.000):  0.0000  0.0000 -0.0000 -0.0000 -0.0000  0.0000  0.0003  0.0081  0.0717  0.9199
  DIIS coefficients:  0.0000  0.0000 -0.0000 -0.0000 -0.0000  0.0000  0.0003  0.0081  0.0717  0.9199
 SCF Error: norm([F,P])=      0.000000869394, max([F,P])=      0.000000261078
 orbitals (Q,E):
 ---------------
 A1 :1...6           ( 2.00   -14.0930)  ( 2.00    -6.4474)  ( 2.00    -0.8804)  ( 2.00    -0.4579)
                     ( 2.00    -0.3101)  ( 0.00    -0.0544)
 A2 :1...1           ( 0.00     0.7408)
 E1 :1...3           ( 4.00    -0.5069)  ( 4.00    -0.2360)  ( 0.00     0.0077)

 SCF CONVERGED

 CYCLE   12
1
 ***************************************************************************************************



                                                *******************
                                                *  R E S U L T S  *
                                                *******************
  
 *** Using FIT density in Focky
  SDIIS (wt  1.000): -0.0000  0.0000 -0.0000  0.0000  0.0000 -0.0001 -0.0007  0.0021  0.1187  0.8799
  DIIS coefficients: -0.0000  0.0000 -0.0000  0.0000  0.0000 -0.0001 -0.0007  0.0021  0.1187  0.8799
 SCF Error: norm([F,P])=      0.000000131513, max([F,P])=      0.000000043401

 Scaled ZORA Orbital Energies, per Irrep and Spin:
 =================================================
                        Occup              E (au)              E (eV)       Diff (eV) with prev. cycle
                        -----      --------------------        ------       --------------------------
 A1
               1        2.000     -0.14092970263637E+02      -383.489               1.14E-06
               2        2.000     -0.64474045789372E+01      -175.443              -1.71E-07
               3        2.000     -0.88043227538063E+00       -23.958               9.92E-07
               4        2.000     -0.45790009763160E+00       -12.460               3.17E-09
               5        2.000     -0.31014476024973E+00        -8.439              -1.29E-07
               6        0.000     -0.54420342196951E-01        -1.481
               7        0.000      0.42740528322993E-01         1.163
               8        0.000      0.94426951213063E-01         2.569
               9        0.000      0.18366929831016E+00         4.998
              10        0.000      0.25857963569325E+00         7.036
              11        0.000      0.37878622958565E+00        10.307
              12        0.000      0.44537195571462E+00        12.119
              13        0.000      0.56251863715897E+00        15.307
              14        0.000      0.89152893637050E+00        24.260
              15        0.000      0.11630268399374E+01        31.648
 A2
               1        0.000      0.74084613976180E+00        20.159
               2        0.000      0.87293768769411E+00        23.754
               3        0.000      0.26899996464532E+01        73.199
               4        0.000      0.29153460408292E+01        79.331
               5        0.000      0.30877418481726E+01        84.022
               6        0.000      0.36764648963525E+01       100.042
               7        0.000      0.59543650917567E+01       162.027
               8        0.000      0.68345648901512E+01       185.978
 E1
               1        4.000     -0.50689874692018E+00       -13.793               9.54E-07
               2        4.000     -0.23601465657441E+00        -6.422              -3.54E-07
               3        0.000      0.77243715391878E-02         0.210
               4        0.000      0.10300562120236E+00         2.803
               5        0.000      0.13189511770864E+00         3.589
               6        0.000      0.18820095748281E+00         5.121
               7        0.000      0.38635686832766E+00        10.513
               8        0.000      0.43508003462954E+00        11.839
               9        0.000      0.45833261098426E+00        12.472
              10        0.000      0.72421073859647E+00        19.707
              11        0.000      0.80584847296541E+00        21.928
              12        0.000      0.11519547047046E+01        31.346
  
 HOMO :        2 E1               -0.23601465657441E+00
 LUMO :        6 A1               -0.54420342196951E-01
  


 Orbital Energies, all Irreps
 ========================================

 Irrep        no.  (spin)   Occup              E (au)                E (eV)
 ---------------------------------------------------------------------------
 A1            1             2.00       -0.14092970263637E+02      -383.4892
 A1            2             2.00       -0.64474045789372E+01      -175.4428
 A1            3             2.00       -0.88043227538063E+00       -23.9578
 E1            1             4.00       -0.50689874692018E+00       -13.7934
 A1            4             2.00       -0.45790009763160E+00       -12.4601
 A1            5             2.00       -0.31014476024973E+00        -8.4395
 E1            2             4.00       -0.23601465657441E+00        -6.4223
 A1            6             0.00       -0.54420342196951E-01        -1.4809
 E1            3             0.00        0.77243715391878E-02         0.2102
 A1            7             0.00        0.42740528322993E-01         1.1630
 A1            8             0.00        0.94426951213063E-01         2.5695
 E1            4             0.00        0.10300562120236E+00         2.8029
 E1            5             0.00        0.13189511770864E+00         3.5890
 A1            9             0.00        0.18366929831016E+00         4.9979
 E1            6             0.00        0.18820095748281E+00         5.1212
 A1           10             0.00        0.25857963569325E+00         7.0363
 A1           11             0.00        0.37878622958565E+00        10.3073
 E1            7             0.00        0.38635686832766E+00        10.5133
 E1            8             0.00        0.43508003462954E+00        11.8391
 A1           12             0.00        0.44537195571462E+00        12.1192
 E1            9             0.00        0.45833261098426E+00        12.4719
 A1           13             0.00        0.56251863715897E+00        15.3069
 E1           10             0.00        0.72421073859647E+00        19.7068
 A2            1             0.00        0.74084613976180E+00        20.1594
 E1           11             0.00        0.80584847296541E+00        21.9283
 A2            2             0.00        0.87293768769411E+00        23.7538
 A1           14             0.00        0.89152893637050E+00        24.2597
 E1           12             0.00        0.11519547047046E+01        31.3463
 A1           15             0.00        0.11630268399374E+01        31.6476
 A1           16             0.00        0.12063759984777E+01        32.8272
 E1           13             0.00        0.12415943983998E+01        33.7855
 E1           14             0.00        0.13548405165862E+01        36.8671
 A1           17             0.00        0.14334438066933E+01        39.0060
 A1           18             0.00        0.15417121619797E+01        41.9521
 A1           19             0.00        0.16399331649730E+01        44.6249
 E1           15             0.00        0.16486689941212E+01        44.8626
 E1           16             0.00        0.18011942770559E+01        49.0130
 E1           17             0.00        0.19330598773339E+01        52.6012
 A1           20             0.00        0.19448838009388E+01        52.9230
 E1           18             0.00        0.20577873677326E+01        55.9952
 E1           19             0.00        0.22191491859269E+01        60.3861
 A1           21             0.00        0.23584201510902E+01        64.1759
 E1           20             0.00        0.24763125293866E+01        67.3839
 A1           22             0.00        0.25040640391592E+01        68.1390
 A2            3             0.00        0.26899996464532E+01        73.1986
 E1           21             0.00        0.27662639315856E+01        75.2739
 E1           22             0.00        0.28021057099202E+01        76.2492
 A1           23             0.00        0.28104295374846E+01        76.4757
 E1           23             0.00        0.28901027107546E+01        78.6437
 A2            4             0.00        0.29153460408292E+01        79.3306
 A1           24             0.00        0.29877914020751E+01        81.3019
 A2            5             0.00        0.30877418481726E+01        84.0217
 E1           24             0.00        0.32147946552249E+01        87.4790
 A1           25             0.00        0.32763780071124E+01        89.1548
 E1           25             0.00        0.33847266650961E+01        92.1031
 E1           26             0.00        0.35283356871201E+01        96.0109
 A1           26             0.00        0.35641179627135E+01        96.9846
 A2            6             0.00        0.36764648963525E+01       100.0417
 E1           27             0.00        0.37653204986491E+01       102.4596
 A1           27             0.00        0.38307092171257E+01       104.2389
 A1           28             0.00        0.42451312503499E+01       115.5159
 E1           28             0.00        0.43091802361930E+01       117.2588
 E1           29             0.00        0.45990494702641E+01       125.1465
 A1           29             0.00        0.46195264654473E+01       125.7037
 E1           30             0.00        0.46415674258184E+01       126.3035
 A1           30             0.00        0.48039833065129E+01       130.7230
 E1           31             0.00        0.49859842774944E+01       135.6755
 A1           31             0.00        0.51135946655603E+01       139.1480
 E1           32             0.00        0.53543213118062E+01       145.6985
 E1           33             0.00        0.57791422894110E+01       157.2585
 A1           32             0.00        0.58997452315366E+01       160.5402
 A2            7             0.00        0.59543650917567E+01       162.0265
 A1           33             0.00        0.62627827308042E+01       170.4190
 A1           34             0.00        0.64573043052447E+01       175.7122
 E1           34             0.00        0.66273855056694E+01       180.3403
 E1           35             0.00        0.67358547404047E+01       183.2919
 A2            8             0.00        0.68345648901512E+01       185.9780
 A1           35             0.00        0.80051807806716E+01       217.8321
 E1           36             0.00        0.86343313702989E+01       234.9521
 A1           36             0.00        0.95426155230656E+01       259.6678
 A1           37             0.00        0.30969959048971E+02       842.7355
 A1           38             0.00        0.71106778081670E+02      1934.9139


 All Electron Calculation, thus no Orbital Energies of the Core Orbitals are calculated


 Fit test: (difference of exact and fit density, squared integrated, result summed over spins)
         Sum-of-Fragments:                             0.00000000007495
         Orthogonalized Fragments:                     0.00002515119171
         SCF:                                          0.00007550377141



 ==========================
 Electron Density at Nuclei
 ==========================
  
 The electron density is calculated at points on a small sphere around the center of a nucleus.
 The printed electron density is the average electron density on these points.
 The radius of the sphere is the printed approximate finite nuclear radius.
 Note: ZORA-4 density is used, which includes small component density

         Atom        Nuclear Radius (Angstrom)             Electron Density (a.u.)
         ----        -------------------------             -----------------------
     1)   N                 0.0000333706                              205.52290
     2)   B                 0.0000313614                               71.41575
     3)   H                 0.0000181514                                0.50411
     4)   H                 0.0000181514                                0.50411
     5)   H                 0.0000181514                                0.50411
     6)   H                 0.0000181514                                0.49558
     7)   H                 0.0000181514                                0.49558
     8)   H                 0.0000181514                                0.49558



 =======================================
 M U L L I K E N   P O P U L A T I O N S
 =======================================
  
 The survey below gives for each atom:
 a) the total charge (Z minus electrons)
 b) the net spin polarization (nr of electrons spin-A minus spin-B)
 c) for each spin the atomic electron valence density (integrated) per L-value.

 Atom              Charge    Spin density          S         P         D         F
 ----              ------    ------------       ------    ------    ------    ------
 1 N               0.3752                       3.3282    3.2590    0.0355    0.0021
 2 B               0.6237                       2.5618    1.7615    0.0500    0.0030
 3 H              -0.0140                       0.8970    0.1065    0.0105    0.0000
 4 H              -0.0140                       0.8970    0.1065    0.0105    0.0000
 5 H              -0.0140                       0.8970    0.1065    0.0105    0.0000
 6 H              -0.3190                       1.2782    0.0384    0.0024    0.0000
 7 H              -0.3190                       1.2782    0.0384    0.0024    0.0000
 8 H              -0.3190                       1.2782    0.0384    0.0024    0.0000

 Populations of individual BAS functions
 ----------------------------------------
 1 N            0.5237  1.4830 -0.0792  1.0464  0.3544  0.1643  0.1643  0.1833  0.9406  0.9406
                1.0098 -0.1198 -0.1198  0.0956  0.0072  0.0055  0.0107  0.0072  0.0107 -0.0057
                0.0006  0.0001 -0.0001  0.0006  0.0002 -0.0002  0.0004 -0.0001 -0.0002  0.0008
 2 B            0.4673  1.5438 -0.1631  0.9948 -0.2811  0.1073  0.1073  0.0580  0.7072  0.7072
                0.3976 -0.1175 -0.1175 -0.0881  0.0103  0.0085  0.0055  0.0103  0.0055  0.0099
                0.0003  0.0000 -0.0014  0.0005  0.0001  0.0004  0.0001 -0.0014  0.0004  0.0039
 3 H            0.0143  0.5626  0.3201  0.0326  0.0319  0.0420 -0.0006  0.0021  0.0012  0.0082
                0.0027 -0.0030
 4 H            0.0143  0.5626  0.3201  0.0326  0.0319  0.0420 -0.0006  0.0021  0.0012  0.0082
                0.0027 -0.0030
 5 H            0.0143  0.5626  0.3201  0.0315  0.0330  0.0420  0.0118  0.0036  0.0034 -0.0057
                0.0005 -0.0030
 6 H            0.3716  0.5915  0.3151  0.0142  0.0166  0.0076 -0.0015  0.0005  0.0002  0.0048
                0.0004 -0.0020
 7 H            0.3716  0.5915  0.3151  0.0142  0.0166  0.0076 -0.0015  0.0005  0.0002  0.0048
                0.0004 -0.0020
 8 H            0.3716  0.5915  0.3151  0.0178  0.0130  0.0076  0.0076  0.0010  0.0006 -0.0049
                0.0001 -0.0020

 Gross Charges per Atom (Z minus electrons)
 ==========================================
             0.3752    0.6237   -0.0140   -0.0140   -0.0140   -0.3190   -0.3190   -0.3190
 Net Total: -0.00000000


 Atom-Atom Population Matrix (off-diagonal elements not doubled)
 ===============================================================

     1 :     5.3288
     2 :     0.2600    3.1438
     3 :     0.3762   -0.0302    0.8100
     4 :     0.3762   -0.0302   -0.0693    0.8100
     5 :     0.3762   -0.0302   -0.0693   -0.0693    0.8100
     6 :    -0.0309    0.3544    0.0134   -0.0084   -0.0084    1.1147
     7 :    -0.0309    0.3544   -0.0084    0.0134   -0.0084   -0.0579    1.1147
     8 :    -0.0309    0.3544   -0.0084   -0.0084    0.0134   -0.0579   -0.0579    1.1147



 =================================================
 H I R S H F E L D   C H A R G E   A N A L Y S I S
 =================================================
  
 For each fragment: the (numerical) integral of rho(scf) * rho(fragment)/rho(sum-of-fragments)
 (nuclear charges are included, electrons are counted negative)

 The fragments and their ordering are defined in the early G E O M E T R Y output section.
 If you use single-atom fragments, this usually implies that all atoms of the same
 chemical type are grouped together. This may not be the order in which you listed them
 in the input file!

    1  N                        -0.0766
    2  B                        -0.0944
    3  H-1                       0.1617
    4  H-1                       0.1617
    5  H-1                       0.1617
    6  H-2                      -0.1047
    7  H-2                      -0.1047
    8  H-2                      -0.1047

 Sum of these charges (accuracy NumInt/Tails) =           0.00001129



 =============================
 V O R O N O I   C H A R G E S
 =============================
  
 For each atom: the (numerical) integral of the total electronic charge density in its Voronoi cell,
 i.e. the region of space that is closer to that atom than to any other atom.
 (cf. Wigner-Seitz cells in crystals)

 Within the Voronoi cell the subintegrals over the atomic sphere and the remaining part are evaluated
 separately to give the numbers of electrons (negative charge) in these regions.
 The net total charge in the cell (including the nuclear charge) is also given.

 Values are provided for
    a) the Initial (sum-of-fragments) density
    b) the Orthogonalized-Fragments density
    c) the SCF density
    d) the Voronoi Deformation Density (VDD): the difference SCF-Initial for the complete atomic cell


  Atom                Initial                    OrthFrag                   SCF
             Sphere RestCell NetTotal   Sphere RestCell NetTotal   Sphere RestCell NetTotal      VDD
 -----       ------------------------   ------------------------   ------------------------    -----
    1 N      -2.321   -3.114    1.565   -2.486   -3.379    1.135   -2.344   -3.203    1.454   -0.111
    2 B      -1.968   -1.678    1.354   -2.018   -1.931    1.051   -1.981   -1.689    1.330   -0.024
    3 H      -0.081   -1.471   -0.551   -0.096   -1.303   -0.399   -0.110   -1.251   -0.361    0.191
    4 H      -0.081   -1.471   -0.551   -0.096   -1.303   -0.399   -0.110   -1.251   -0.361    0.191
    5 H      -0.081   -1.471   -0.551   -0.096   -1.303   -0.399   -0.110   -1.251   -0.361    0.191
    6 H      -0.072   -1.350   -0.422   -0.111   -1.219   -0.330   -0.107   -1.460   -0.567   -0.145
    7 H      -0.072   -1.350   -0.422   -0.111   -1.219   -0.330   -0.107   -1.460   -0.567   -0.145
    8 H      -0.072   -1.350   -0.422   -0.111   -1.219   -0.330   -0.107   -1.460   -0.567   -0.145
 ---------------------------------------------------------------------------------------------------
 Total NetCharge:              -0.000                     -0.000                      0.000    0.000
 (accuracy NumInt/Tails)

 Remark: the 'NetTotal' Voronoi charges often do not match the Mulliken and/or Hirshfeld charges very
 well. This is caused by the fact that chemically different atoms are not treated in accordance with
 their relative sizes. (Voronoi cells are defined by boundary planes halfway between the atoms.)
 However, the CHANGES in charge, comparing 'Initial' to 'SCF' for instance, do give a fair indication
 of the flow of charge caused by the relaxation from sum-of-fragments to self-consistency.

 Warning: the absolute accuracy of the VDD charges obtained using the Fuzzy Cells (Becke) integration
 scheme is much poorer than the one obtained with an 'equivalent' Voronoi integration grid. 



 =================================================================
 M U L T I P O L E   D E R I V E D   C H A R G E   A N A L Y S I S
 =================================================================

 This charge analysis uses the atomic multipoles (obtained from the fitted density) up to some level X,
 and reconstructs these multipoles exactly (up to level X) by distributing charges over all atoms.
 This is achieved by using Lagrange multipliers and a weight function to keep the multipoles local.

 Dummy atoms can be included (by setting INCDUM in MDC-block to 1) to obtain a fractional charge.
 This is generally useful and necessary only for small symmetrical molecules, when there are not
 enough degrees of freedom to reconstruct the multipoles.

 Since the atomic multipoles are reconstructed up to level X,
 the molecular multipoles are represented also up to level X.
 The recommended level is to reconstruct up to quadrupole : -> MDC-q charges.

 See: M. Swart, P.Th. van Duijnen, J.G. Snijders, J.Comput.Chem., (2001), p. 79-88.

 ------------------------------------------------------------- 
 Atomic electronic multipole moments from SCF equations (a.u.)
[...]
 CF+SFO     ----   ----   ----   ----   ----   ----   ----   ----   ----
 ------
      1:  100.00   0.00   0.00   0.00   0.00   0.00  -0.00   0.00  -0.00
      2:    0.00  -0.01  63.18   1.11   2.99   1.13   0.38   1.80   9.29
      3:    0.00  -0.02  -0.62   0.64  -0.87   1.48  -0.68  -2.73 -10.96
      6:    0.00   0.00   0.37  39.87  24.62   0.89   2.33   3.80  15.82
      7:    0.00   0.00   0.06  -2.54   2.17  -1.82   4.42 -12.26   0.26
      9:    0.00   0.00   0.03   0.12   0.01   0.12   0.11  -0.01   2.32
     12:    0.00 100.05   0.00   0.01   0.00   0.00   0.00   0.00   0.00
     13:    0.00   0.00  -0.51  24.85   5.18  -1.90  12.15  -0.05  -0.15
     14:    0.00   0.00  -1.12   0.74  -1.08  -6.76 -49.87   0.16   3.76
     17:    0.00  -0.00   0.94   0.94  14.25  -0.47   0.62  82.29  11.42
     18:    0.00   0.00  -0.86   0.98   2.63  -4.01  -0.80  25.93   4.97
     23:   -0.00   0.01  33.41   1.98   3.93  37.94   0.31  -4.75  41.29
     24:    0.00  -0.00  -0.77   1.94  -0.78  65.67  -3.84   4.37  16.26
     25:    0.00  -0.00  -1.27  -0.05   0.04  -0.60  -0.14  -0.27  -0.58
     26:    0.00   0.00   5.96   0.52   0.12   7.05  -0.29   0.20   0.06
     27:   -0.00   0.01   0.28   2.96   1.67   1.21   0.78   0.58   4.50
     31:   -0.00  -0.01   0.66  24.83  42.82   0.04  36.03  10.66   1.16
     32:    0.00   0.01  -0.24  -1.07  -0.39  -1.08 104.52 -10.46   0.56
     33:    0.00  -0.00  -0.01  -0.40   0.08  -0.51  -4.95   0.41  -0.55
     34:    0.00  -0.04   0.06   1.79   1.81   0.09  -1.40   0.05   0.30
     35:    0.00  -0.00  -0.03   0.42   0.07   0.70  -0.31  -0.92   1.12


 Summation over all MOs, multiplied by occupation: Total SFO Gross Populations in this Irrep
 ===========================================================================================

     2.00    1.35   -0.02    0.00    0.00    1.30   -0.01   -0.00    0.00    0.00    0.00    2.00
     0.59   -0.03   -0.00   -0.00    0.32    0.06   -0.01    0.02    0.00    0.00    0.79    0.01
    -0.03    0.13    0.10    0.00    0.01    0.01    1.37   -0.03   -0.01    0.07    0.01    0.00
     0.00    0.00


                                       === A2 ===


 SFO contributions (%) per orbital
 (multiplication by the orbital occupation yields the SFO Gross Populations)

 Orb.:        1      2      3      4
 occup:     0.00   0.00   0.00   0.00
 CF+SFO     ----   ----   ----   ----
 ------
      1:   -0.30  -0.35   0.85   5.11
      2:   -0.12   0.02   8.77   2.98
      3:   29.03  69.30   0.08  -0.01
      4:    0.49   1.72   0.28   0.26
      5:    0.10  -0.01  18.94  74.46
      6:   70.08  28.94   0.06   0.02
      7:    0.64   0.34   3.56   1.35
      8:    0.09   0.04  67.45  15.83


 Summation over all MOs, multiplied by occupation: Total SFO Gross Populations in this Irrep
 ===========================================================================================

     0.00    0.00    0.00    0.00    0.00    0.00    0.00    0.00


                                       === E1:1 ===


 SFO contributions (%) per orbital
 (multiplication by the orbital occupation yields the SFO Gross Populations)

 Orb.:        1      2      3      4      5      6
 occup:     2.00   2.00   0.00   0.00   0.00   0.00
 CF+SFO     ----   ----   ----   ----   ----   ----
 ------
      1:   49.93   0.01   6.75   2.55  -1.24  22.25
      2:   -1.51   1.10 -27.73  -0.16   3.09   6.14
      4:    0.23   0.05   0.15   0.19  -0.12   1.69
      8:    1.20  33.42  -1.01  11.32  58.82   1.54
      9:   -0.43   1.12   0.68 -48.74  81.14  -0.10
     15:   43.68   0.87  80.69   4.25   4.03  17.44
     16:    2.88   0.23  31.00  -2.06  -7.58  32.21
     17:    0.41  -0.02   4.97   0.49   0.75  -4.09
     18:    1.06  -0.01   0.43   1.70   0.19   9.38
     19:    0.51  -0.03  -0.53   1.44  -0.19   4.14
     20:    0.58   0.12   0.43   0.04   3.35   0.18
     26:    0.80  62.68   0.32  51.17  21.77   9.65
     27:    0.02  -0.69   3.11  70.57 -53.90  -4.97
     28:   -0.01  -0.07  -0.02   6.19  -6.72  -0.34
     29:    0.01   0.34   0.05   0.29  -1.60   0.00
     30:    0.02   0.14   0.03  -0.06  -2.16   0.06
     31:    0.12   0.22  -0.01  -0.35   0.23   4.41


 Summation over all MOs, multiplied by occupation: Total SFO Gross Populations in this Irrep
 ===========================================================================================

     1.00   -0.01   -0.01    0.01    0.01    0.00    0.00    0.69    0.01   -0.01    0.01    0.01
     0.00    0.00    0.89    0.06    0.01    0.02    0.01    0.01   -0.00    0.01   -0.00    0.00
     0.00    1.27   -0.01   -0.00    0.01    0.00    0.01   -0.00    0.00   -0.00    0.00    0.00


                                       === E1:2 ===


 SFO contributions (%) per orbital
 (multiplication by the orbital occupation yields the SFO Gross Populations)

 Orb.:        1      2      3      4      5      6
 occup:     2.00   2.00   0.00   0.00   0.00   0.00
 CF+SFO     ----   ----   ----   ----   ----   ----
 ------
      1:   49.93   0.01   6.75   2.55  -1.24  22.25
      2:   -1.51   1.10 -27.73  -0.16   3.09   6.14
      4:    0.23   0.05   0.15   0.19  -0.12   1.69
      8:    1.20  33.42  -1.01  11.32  58.82   1.54
      9:   -0.43   1.12   0.68 -48.74  81.14  -0.10
     15:   43.68   0.87  80.69   4.25   4.03  17.44
     16:    2.88   0.23  31.00  -2.06  -7.58  32.21
     17:    0.41  -0.02   4.97   0.49   0.75  -4.09
     18:    1.06  -0.01   0.43   1.70   0.19   9.38
     19:    0.51  -0.03  -0.53   1.44  -0.19   4.14
     20:    0.58   0.12   0.43   0.04   3.35   0.18
     26:    0.80  62.68   0.32  51.17  21.77   9.65
     27:    0.02  -0.69   3.11  70.57 -53.90  -4.97
     28:   -0.01  -0.07  -0.02   6.19  -6.72  -0.34
     29:    0.01   0.34   0.05   0.29  -1.60   0.00
     30:    0.02   0.14   0.03  -0.06  -2.16   0.06
     31:    0.12   0.22  -0.01  -0.35   0.23   4.41


 Summation over all MOs, multiplied by occupation: Total SFO Gross Populations in this Irrep
 ===========================================================================================

     1.00   -0.01   -0.01    0.01    0.01    0.00    0.00    0.69    0.01   -0.01    0.01    0.01
     0.00    0.00    0.89    0.06    0.01    0.02    0.01    0.01   -0.00    0.01   -0.00    0.00
     0.00    1.27   -0.01   -0.00    0.01    0.00    0.01   -0.00    0.00   -0.00    0.00    0.00



 List of all MOs, ordered by energy, with the most significant SFO gross populations
 ===================================================================================

 Each percentage contribution in the table below corres ponds to the indicated SFO.
 In general, a SFO may be a linear combination of several Fragment Orbitals on the same,
 or on symmetry-related Fragments. Only the first 'member' of such a combination is
 specified here. A full definition of all SFOs is given in an earlier part of the output.
 The numbering of the SFOs in this table does NOT include the Core Orbitals, and starts
 from one for each symmetry representation, as in the SFO definition list earlier.

       E(eV)  Occ       MO           %     SFO (first member)   E(eV)  Occ   Fragment
 -------------------------------------------------------------------------------------

     -23.958  2.00     3 A1        63.18%     2 S             -18.694  2.00     1 N
                                   33.41%     1 S              -6.484  1.00     3 H-1
                                    5.96%     1 P:x            11.162  0.00     3 H-1
                                   -1.27%     3 S              41.380  0.00     3 H-1
                                   -1.12%     3 S               5.623  0.00     2 B
     -13.793  2.00     1 E1:1      49.93%     1 P:x            -6.963  1.00     1 N
                                   43.68%     1 S              -6.484  1.00     3 H-1
                                    2.88%     2 S               2.096  0.00     3 H-1
                                   -1.51%     2 P:x             7.772  0.00     1 N
                                    1.20%     1 P:x            -3.435  0.33     2 B
                                    1.06%     1 P:x            11.162  0.00     3 H-1
     -13.793  2.00     1 E1:2      49.93%     1 P:y            -6.963  1.00     1 N
                                   43.68%     1 S              -6.484  1.00     3 H-1
                                    2.88%     2 S               2.096  0.00     3 H-1
                                   -1.51%     2 P:y             7.772  0.00     1 N
                                    1.20%     1 P:y            -3.435  0.33     2 B
                                    1.06%     1 P:x            11.162  0.00     3 H-1
     -12.460  2.00     4 A1        39.87%     1 P:z            -6.963  1.00     1 N
                                   24.85%     2 S              -9.402  2.00     2 B
                                   24.83%     1 S              -6.484  1.00     6 H-2
                                    2.96%     1 P:z            11.162  0.00     3 H-1
                                   -2.54%     2 P:z             7.772  0.00     1 N
                                    1.98%     1 S              -6.484  1.00     3 H-1
                                    1.94%     2 S               2.096  0.00     3 H-1
                                    1.79%     1 P:x            11.162  0.00     6 H-2
                                    1.11%     2 S             -18.694  2.00     1 N
                                   -1.07%     2 S               2.096  0.00     6 H-2
      -8.439  2.00     5 A1        42.82%     1 S              -6.484  1.00     6 H-2
                                   24.62%     1 P:z            -6.963  1.00     1 N
                                   14.25%     1 P:z            -3.435  0.33     2 B
                                    5.18%     2 S              -9.402  2.00     2 B
                                    3.93%     1 S              -6.484  1.00     3 H-1
                                    2.99%     2 S             -18.694  2.00     1 N
                                    2.63%     2 P:z             3.297  0.00     2 B
                                    2.17%     2 P:z             7.772  0.00     1 N
                                    1.81%     1 P:x            11.162  0.00     6 H-2
                                    1.67%     1 P:z            11.162  0.00     3 H-1
                                   -1.08%     3 S               5.623  0.00     2 B
      -6.422  2.00     2 E1:1      62.68%     1 S              -6.484  1.00     6 H-2
                                   33.42%     1 P:x            -3.435  0.33     2 B
                                    1.12%     2 P:x             3.297  0.00     2 B
                                    1.10%     2 P:x             7.772  0.00     1 N
      -6.422  2.00     2 E1:2      62.68%     1 S              -6.484  1.00     6 H-2
                                   33.42%     1 P:y            -3.435  0.33     2 B
                                    1.12%     2 P:y             3.297  0.00     2 B
                                    1.10%     2 P:y             7.772  0.00     1 N
      -1.481  0.00     6 A1        65.67%     2 S               2.096  0.00     3 H-1
                                   37.94%     1 S              -6.484  1.00     3 H-1
                                    7.05%     1 P:x            11.162  0.00     3 H-1
                                   -6.76%     3 S               5.623  0.00     2 B
                                   -4.01%     2 P:z             3.297  0.00     2 B
                                   -1.90%     2 S              -9.402  2.00     2 B
                                   -1.82%     2 P:z             7.772  0.00     1 N
                                    1.48%     3 S              14.408  0.00     1 N
                                    1.21%     1 P:z            11.162  0.00     3 H-1
                                    1.13%     2 S             -18.694  2.00     1 N
                                   -1.08%     2 S               2.096  0.00     6 H-2
       0.210  0.00     3 E1:1      80.69%     1 S              -6.484  1.00     3 H-1
                                   31.00%     2 S               2.096  0.00     3 H-1
                                  -27.73%     2 P:x             7.772  0.00     1 N
                                    6.75%     1 P:x            -6.963  1.00     1 N
                                    4.97%     3 S              41.380  0.00     3 H-1
                                    3.11%     2 S               2.096  0.00     6 H-2
                                   -1.01%     1 P:x            -3.435  0.33     2 B
       0.210  0.00     3 E1:2      80.69%     1 S              -6.484  1.00     3 H-1
                                   31.00%     2 S               2.096  0.00     3 H-1
                                  -27.73%     2 P:y             7.772  0.00     1 N
                                    6.75%     1 P:y            -6.963  1.00     1 N
                                    4.97%     3 S              41.380  0.00     3 H-1
                                    3.11%     2 S               2.096  0.00     6 H-2
                                   -1.01%     1 P:y            -3.435  0.33     2 B
       1.163  0.00     7 A1       104.52%     2 S               2.096  0.00     6 H-2
                                  -49.87%     3 S               5.623  0.00     2 B
                                   36.03%     1 S              -6.484  1.00     6 H-2
                                   12.15%     2 S              -9.402  2.00     2 B
                                   -4.95%     3 S              41.380  0.00     6 H-2
                                    4.42%     2 P:z             7.772  0.00     1 N
                                   -3.84%     2 S               2.096  0.00     3 H-1
                                    2.33%     1 P:z            -6.963  1.00     1 N
                                   -1.40%     1 P:x            11.162  0.00     6 H-2
       2.569  0.00     8 A1        82.29%     1 P:z            -3.435  0.33     2 B
                                   25.93%     2 P:z             3.297  0.00     2 B
                                  -12.26%     2 P:z             7.772  0.00     1 N
                                   10.66%     1 S              -6.484  1.00     6 H-2
                                  -10.46%     2 S               2.096  0.00     6 H-2
                                   -4.75%     1 S              -6.484  1.00     3 H-1
                                    4.37%     2 S               2.096  0.00     3 H-1
                                    3.80%     1 P:z            -6.963  1.00     1 N
                                   -2.73%     3 S              14.408  0.00     1 N
                                    1.80%     2 S             -18.694  2.00     1 N
       2.803  0.00     4 E1:1      70.57%     2 S               2.096  0.00     6 H-2
                                   51.17%     1 S              -6.484  1.00     6 H-2
                                  -48.74%     2 P:x             3.297  0.00     2 B
                                   11.32%     1 P:x            -3.435  0.33     2 B
                                    6.19%     3 S              41.380  0.00     6 H-2
                                    4.25%     1 S              -6.484  1.00     3 H-1
                                    2.55%     1 P:x            -6.963  1.00     1 N
                                   -2.06%     2 S               2.096  0.00     3 H-1
                                    1.70%     1 P:x            11.162  0.00     3 H-1
                                    1.44%     1 P:y            11.162  0.00     3 H-1
       2.803  0.00     4 E1:2      70.57%     2 S               2.096  0.00     6 H-2
                                   51.17%     1 S              -6.484  1.00     6 H-2
                                  -48.74%     2 P:y             3.297  0.00     2 B
                                   11.32%     1 P:y            -3.435  0.33     2 B
                                    6.19%     3 S              41.380  0.00     6 H-2
                                    4.25%     1 S              -6.484  1.00     3 H-1
                                    2.55%     1 P:y            -6.963  1.00     1 N
                                   -2.06%     2 S               2.096  0.00     3 H-1
                                    1.70%     1 P:x            11.162  0.00     3 H-1
                                    1.44%     1 P:x            11.162  0.00     3 H-1
       3.589  0.00     5 E1:1      81.14%     2 P:x             3.297  0.00     2 B
                                   58.82%     1 P:x            -3.435  0.33     2 B
                                  -53.90%     2 S               2.096  0.00     6 H-2
                                   21.77%     1 S              -6.484  1.00     6 H-2
                                   -7.58%     2 S               2.096  0.00     3 H-1
                                   -6.72%     3 S              41.380  0.00     6 H-2
                                    4.03%     1 S              -6.484  1.00     3 H-1
                                    3.35%     1 P:z            11.162  0.00     3 H-1
                                    3.09%     2 P:x             7.772  0.00     1 N
                                   -2.16%     1 P:y            11.162  0.00     6 H-2
                                   -1.60%     1 P:x            11.162  0.00     6 H-2
                                   -1.24%     1 P:x            -6.963  1.00     1 N
       3.589  0.00     5 E1:2      81.14%     2 P:y             3.297  0.00     2 B
                                   58.82%     1 P:y            -3.435  0.33     2 B
                                  -53.90%     2 S               2.096  0.00     6 H-2
                                   21.77%     1 S              -6.484  1.00     6 H-2
                                   -7.58%     2 S               2.096  0.00     3 H-1
                                   -6.72%     3 S              41.380  0.00     6 H-2
                                    4.03%     1 S              -6.484  1.00     3 H-1
                                    3.35%     1 P:z            11.162  0.00     3 H-1
                                    3.09%     2 P:y             7.772  0.00     1 N
                                   -2.16%     1 P:x            11.162  0.00     6 H-2
                                   -1.60%     1 P:x            11.162  0.00     6 H-2
                                   -1.24%     1 P:y            -6.963  1.00     1 N



 =======================================================================
 Electrostatic potential at the Nuclei due to electrons and other nuclei
 =======================================================================
  
         Atom                  Potential
         ----                  ---------
     1)   N                  18.33732784
     2)   B                  11.54712473
     3)   H                   0.98992567
     4)   H                   0.98992567
     5)   H                   0.98992307
     6)   H                   1.22169438
     7)   H                   1.22169438
     8)   H                   1.22168537
 Mulliken charges used for AMS results%charges...


    =====================
     CALCULATION RESULTS
    =====================

Energy (hartree)            -1.30790893


--------------
Atomic charges
--------------
  Index   Atom    Charge
      1      N    0.3752
      2      B    0.6237
      3      H   -0.0140
      4      H   -0.0140
      5      H   -0.0140
      6      H   -0.3190
      7      H   -0.3190
      8      H   -0.3190


Dipole moment vector    (Debye):    -0.00000010    0.00000000   -5.16857918
              magnitude (Debye):     5.16857918


AMS application finished. Exiting.
NORMAL TERMINATION
     Total cpu time:      12.76
  Total system time:       6.50
 Total elapsed time:      23.75
