

 Parallel Execution: Process Information
 ==============================================================================
 Rank   Node Name                              NodeID   MyNodeRank  NodeMaster
    0   MW-032209.clients.vu.nl                   0          0          0
    1   MW-032209.clients.vu.nl                   0          1         -1
    2   MW-032209.clients.vu.nl                   0          2         -1
    3   MW-032209.clients.vu.nl                   0          3         -1
 ==============================================================================


May use up to 11718MB of RAM as shared memory on node 0

 *******************************************************************************
 *                                                                             *
 *  --------------------------------                                           *
 *   Amsterdam Modeling Suite (AMS)              2022.103                      *
 *  --------------------------------                                           *
 *                                               r104886 2022-06-17            *
 *                                                                             *
 *                                                                             *
 *                              =================                              *
 *                              |               |                              *
 *                              |     A M S     |                              *
 *                              |               |                              *
 *                              =================                              *
 *                                                                             *
 *                                                                             *
 *   Online information and documentation:  https://www.scm.com/support/       *
 *   E-mail:  support@scm.com   info@scm.com                                   *
 *                                                                             *
 *   Scientific publications using AMS results must be properly referenced     *
 *   See the User Manuals (or the web site) for recommended citations          *
 *   The terms and conditions of the End User License Agreement apply to       *
 *   the use of AMS, https://www.scm.com/license-terms/                        *
 *                                                                             *
 **********************  x86_64_darwin_intel / openmpi  ************************
 
 Licensed to: Prof Visscher, Prof Bickelhaupt, Prof Fonseca Guerra / Vrije Universiteit, Theoretische Chemie / Amsterdam / NETHERLANDS 2023-10-02 14:04:27
 SCM User ID: u21794
  
 AMS 2022.103  RunTime: Oct09-2023 13:30:16  ShM Nodes: 1  Procs: 4

 AMS jobname: ams
 AMS jobid  : 1517504222

 Start   directory: /Users/yumanhordijk/Koen/temporary_going_to_delete/tmp.yumanhordijk.86252.0.noindex/
 Results directory: /Users/yumanhordijk/Koen/temporary_going_to_delete/ts sn2.results/
 Scratch directory: /tmp/amstmp_ams_kid0.1517504222/


 Communication costs MPI_COMM_WORLD:      1.311 usec per message,   0.0064 usec per 8-byte item
 Communication costs for intra-node:      1.294 usec per message,   0.0069 usec per 8-byte item

 RNG seed: -1564767617 823170635 -833780774 -483038344 -813906161 -1426495413 -885882179 73000680



                      ************************************************************************
                      *  ADF 2022.103  RunTime: Oct09-2023 13:30:17  ShM Nodes: 1  Procs: 4  *
                      ************************************************************************
  
       *****************************
       *  TRANSITION STATE SEARCH  *
       *****************************

Optimization Method                    Quasi Newton
Optimization Coordinates               Delocalized Coordinates
Optimize lattice                       F
 
 ------------------------------------------------------
 Convergence criteria (Hartree,Angstrom)
 ------------------------------------------------------
 Maximum gradient               0.001000000000
 Maximum rms gradient           0.000666666667
 Maximum step allowed           0.010000000000
 Maximum rms step allowed       0.006666666667
 Maximum energy change allowe   0.000060000000
 Maximum stress energy allowe   0.000500000000
 
Initial model Hessian                  Automatic Hessian
 
------------------------------------
Quasi-Newton Optimizer Parameters
------------------------------------
Hessian Update Method                  Bofill
Maximum number of steps                  250
First GDIIS cycle                          0
Maximum GDIIS vectors                      0
Trust radius (bohr)                        0.200000
Trust radius varies                        F
Constraints converged at all steps         T
Use projector                              T
 
 Rigid motions settings for: old optimizer
 Atomic rotations (x,y,z):     T T T
 Atomic translations (x,y,z):  T T T
 Tolerance:                   1.000000000000000E-006
 
--------
Geometry
--------
Formula: CH3Cl2
Atoms
  Index Symbol   x (angstrom)   y (angstrom)   z (angstrom)
      1      C     0.00000000     0.00000000     0.00000000
      2     Cl     2.40000000     0.00000000     0.00000000
      3      H     0.00000000     0.90540836     0.52273776
      4      H     0.00000000    -0.90540836     0.52273776
      5      H     0.00000000     0.00000000    -1.04547552
      6     Cl    -2.40000000     0.00000000     0.00000000
 
Total System Charge            -1.00000
Bonding info available!
 
 
----------------
ADF Engine Input
----------------
 
 

 Title: *** (NO TITLE) ***

 WARNING: Atom coordinates do not satisfy full symmetry (probably due to orienta
 tion).
Number of symmetry operators: 12
Schoenflies symbol:           D(3H)
 Using automatic Hessian for delocalized coordinates.
 *** GO1_GOStep1 ***

 Energy gradients wrt nuclear displacements
 ==========================================

     Atom      Cartesian (a.u./angstrom)
                 X         Y         Z
 ----------------------------------------
     1 C    -0.000000  0.000000 -0.000298
     2 Cl    0.009278  0.000000 -0.000032
     3 H     0.000000 -0.051151 -0.029408
     4 H     0.000000  0.051151 -0.029408
     5 H     0.000000  0.000000  0.059178
     6 Cl   -0.009278 -0.000000 -0.000032
 ----------------------------------------
 Mulliken charges used for AMS results%charges...
           Primitive Internal Coordinates (atoms in internal order)
-------------------------------------------------------------------------------
    index    type      i       j       k       l   value(A,deg)     TSRC Vect
-------------------------------------------------------------------------------
       1     bnd       1       3       0       0     1.04547552     0.01695100
       2     bnd       1       5       0       0     1.04547552    -0.03390203
       3     bnd       1       4       0       0     1.04547552     0.01695103
       4     bnd       1       2       0       0     2.40000000    -0.00000000
       5     bnd       2       4       0       0     2.61782716    -0.06761874
       6     bnd       2       3       0       0     2.61782716    -0.06761861
       7     bnd       4       6       0       0     2.61782716    -0.06761874
       8     bnd       2       5       0       0     2.61782716     0.13523736
       9     bnd       1       6       0       0     2.40000000    -0.00000000
      10     bnd       3       6       0       0     2.61782716    -0.06761861
      11     bnd       5       6       0       0     2.61782716     0.13523736
      12     ang       3       1       5       0   119.99999998    -0.07501676
      13     ang       3       1       4       0   120.00000004     0.15003337
      14     ang       3       1       2       0    90.00000000    -0.04106971
      15     ang       3       1       6       0    90.00000000    -0.04106971
      16     ang       5       1       4       0   119.99999998    -0.07501661
      17     ang       5       1       2       0    90.00000000     0.08213949
      18     ang       5       1       6       0    90.00000000     0.08213949
      19     ang       4       1       2       0    90.00000000    -0.04106979
      20     ang       4       1       6       0    90.00000000    -0.04106979
      21     ang       4       2       3       0    40.46891496     0.04833195
      22     ang       4       2       5       0    40.46891493    -0.02416595
      23     ang       3       2       5       0    40.46891493    -0.02416600
      24     ang       1       3       2       0    66.46134592     0.03137789
      25     ang       1       3       6       0    66.46134592     0.03137789
      26     ang       2       3       6       0   132.92269184     0.06275579
      27     ang       1       4       2       0    66.46134592     0.03137796
      28     ang       1       4       6       0    66.46134592     0.03137796
      29     ang       2       4       6       0   132.92269184     0.06275591
      30     ang       1       5       2       0    66.46134593    -0.06275585
      31     ang       1       5       6       0    66.46134593    -0.06275585
      32     ang       2       5       6       0   132.92269187    -0.12551170
      33     ang       4       6       3       0    40.46891496     0.04833195
      34     ang       4       6       5       0    40.46891493    -0.02416595
      35     ang       3       6       5       0    40.46891493    -0.02416600
      36     dih       5       1       3       2   270.00000000    -0.07113491
      37     dih       5       1       3       6    90.00000000     0.07113491
      38     dih       4       1       3       2    90.00000000    -0.07113491
      39     dih       4       1       3       6   270.00000000     0.07113491
      40     dih       2       1       3       6   180.00000000     0.14226982
      41     dih       6       1       3       2   180.00000000    -0.14226982
      42     dih       3       1       5       2    90.00000000     0.00000005
      43     dih       3       1       5       6   270.00000000    -0.00000005
      44     dih       4       1       5       2   270.00000000     0.00000005
      45     dih       4       1       5       6    90.00000000    -0.00000005
      46     dih       2       1       5       6   179.99999915    -0.00000009
      47     dih       6       1       5       2   179.99999915     0.00000009
      48     dih       3       1       4       2   270.00000000     0.07113486
      49     dih       3       1       4       6    90.00000000    -0.07113486
      50     dih       5       1       4       2    90.00000000     0.07113486
      51     dih       5       1       4       6   270.00000000    -0.07113486
      52     dih       2       1       4       6   180.00000000    -0.14226973
      53     dih       6       1       4       2   180.00000000     0.14226973
      54     dih       3       1       2       4   120.00000004     0.15003337
      55     dih       3       1       2       5   240.00000002     0.07501676
      56     dih       5       1       2       4   240.00000002     0.07501661
      57     dih       5       1       2       3   119.99999998    -0.07501676
      58     dih       4       1       2       3   239.99999996    -0.15003337
      59     dih       4       1       2       5   119.99999998    -0.07501661
      60     dih       1       2       4       6     0.00000000    -0.17811874
      61     dih       3       2       4       1    32.20072747    -0.07621558
      62     dih       3       2       4       6    32.20072747    -0.25433432
      63     dih       5       2       4       1   -32.20072748    -0.01709111
      64     dih       5       2       4       6   -32.20072748    -0.19520984
      65     dih       1       2       3       6     0.00000000     0.17811885
      66     dih       4       2       3       1   -32.20072747     0.07621555
      67     dih       4       2       3       6   -32.20072747     0.25433440
      68     dih       5       2       3       1    32.20072748     0.01709120
      69     dih       5       2       3       6    32.20072748     0.19521005
      70     dih       1       4       6       3   -32.20072747     0.07621558
      71     dih       1       4       6       5    32.20072748     0.01709111
      72     dih       2       4       6       1     0.00000000     0.17811874
      73     dih       2       4       6       3   -32.20072747     0.25433432
      74     dih       2       4       6       5    32.20072748     0.19520984
      75     dih       1       2       5       6     0.00000191    -0.00000011
      76     dih       4       2       5       1    32.20072750     0.05912439
      77     dih       4       2       5       6    32.20072750     0.05912427
      78     dih       3       2       5       1   -32.20072750    -0.05912445
      79     dih       3       2       5       6   -32.20072750    -0.05912456
      80     dih       3       1       6       4   239.99999996    -0.15003337
      81     dih       3       1       6       5   119.99999998    -0.07501676
      82     dih       5       1       6       4   119.99999998    -0.07501661
      83     dih       5       1       6       3   240.00000002     0.07501676
      84     dih       4       1       6       3   120.00000004     0.15003337
      85     dih       4       1       6       5   240.00000002     0.07501661
      86     dih       1       3       6       4    32.20072747    -0.07621555
      87     dih       1       3       6       5   -32.20072748    -0.01709120
      88     dih       2       3       6       4    32.20072747    -0.25433440
      89     dih       2       3       6       1     0.00000000    -0.17811885
      90     dih       2       3       6       5   -32.20072748    -0.19521005
      91     dih       1       5       6       4   -32.20072750    -0.05912439
      92     dih       1       5       6       3    32.20072750     0.05912445
      93     dih       2       5       6       4   -32.20072750    -0.05912427
      94     dih       2       5       6       1     0.00000191     0.00000011
      95     dih       2       5       6       3    32.20072750     0.05912456
Hessian eigenvector     1(     0.024) has overlap with TSRC:    0.10000E+01
Hessian eigenvector     2(     0.024) has overlap with TSRC:    0.11560E-15
Hessian eigenvector     3(     0.038) has overlap with TSRC:    0.45438E-15
Hessian eigenvector     4(     0.038) has overlap with TSRC:    0.25475E-18
Hessian eigenvector     5(     0.055) has overlap with TSRC:    0.74545E-16
Hessian eigenvector     6(     0.113) has overlap with TSRC:    0.47273E-17
Hessian eigenvector     7(     0.113) has overlap with TSRC:    0.43079E-16
Hessian eigenvector     8(     0.224) has overlap with TSRC:    0.14384E-22
Hessian eigenvector     9(     0.229) has overlap with TSRC:    0.20796E-16
Hessian eigenvector    10(     0.310) has overlap with TSRC:    0.33441E-15
Hessian eigenvector    11(     0.310) has overlap with TSRC:    0.23066E-16
Hessian eigenvector    12(     0.351) has overlap with TSRC:    0.18301E-22
Hessian eigenvector     1 has the largest overlap with TSRC:  1.00000
           Primitive Internal Coordinates (atoms in internal order)
-------------------------------------------------------------------------------
    index    type      i       j       k       l   value(A,deg)     Max Ovl Vect
-------------------------------------------------------------------------------
       1     bnd       1       3       0       0     1.04547552     0.01695100
       2     bnd       1       5       0       0     1.04547552    -0.03390203
       3     bnd       1       4       0       0     1.04547552     0.01695103
       4     bnd       1       2       0       0     2.40000000    -0.00000000
       5     bnd       2       4       0       0     2.61782716    -0.06761874
       6     bnd       2       3       0       0     2.61782716    -0.06761861
       7     bnd       4       6       0       0     2.61782716    -0.06761874
       8     bnd       2       5       0       0     2.61782716     0.13523736
       9     bnd       1       6       0       0     2.40000000    -0.00000000
      10     bnd       3       6       0       0     2.61782716    -0.06761861
      11     bnd       5       6       0       0     2.61782716     0.13523736
      12     ang       3       1       5       0   119.99999998    -0.07501676
      13     ang       3       1       4       0   120.00000004     0.15003337
      14     ang       3       1       2       0    90.00000000    -0.04106971
      15     ang       3       1       6       0    90.00000000    -0.04106971
      16     ang       5       1       4       0   119.99999998    -0.07501661
      17     ang       5       1       2       0    90.00000000     0.08213949
      18     ang       5       1       6       0    90.00000000     0.08213949
      19     ang       4       1       2       0    90.00000000    -0.04106979
      20     ang       4       1       6       0    90.00000000    -0.04106979
      21     ang       4       2       3       0    40.46891496     0.04833195
      22     ang       4       2       5       0    40.46891493    -0.02416595
      23     ang       3       2       5       0    40.46891493    -0.02416600
      24     ang       1       3       2       0    66.46134592     0.03137789
      25     ang       1       3       6       0    66.46134592     0.03137789
      26     ang       2       3       6       0   132.92269184     0.06275579
      27     ang       1       4       2       0    66.46134592     0.03137796
      28     ang       1       4       6       0    66.46134592     0.03137796
      29     ang       2       4       6       0   132.92269184     0.06275591
      30     ang       1       5       2       0    66.46134593    -0.06275585
      31     ang       1       5       6       0    66.46134593    -0.06275585
      32     ang       2       5       6       0   132.92269187    -0.12551170
      33     ang       4       6       3       0    40.46891496     0.04833195
      34     ang       4       6       5       0    40.46891493    -0.02416595
      35     ang       3       6       5       0    40.46891493    -0.02416600
      36     dih       5       1       3       2   270.00000000    -0.07113491
      37     dih       5       1       3       6    90.00000000     0.07113491
      38     dih       4       1       3       2    90.00000000    -0.07113491
      39     dih       4       1       3       6   270.00000000     0.07113491
      40     dih       2       1       3       6   180.00000000     0.14226982
      41     dih       6       1       3       2   180.00000000    -0.14226982
      42     dih       3       1       5       2    90.00000000     0.00000005
      43     dih       3       1       5       6   270.00000000    -0.00000005
      44     dih       4       1       5       2   270.00000000     0.00000005
      45     dih       4       1       5       6    90.00000000    -0.00000005
      46     dih       2       1       5       6   179.99999915    -0.00000009
      47     dih       6       1       5       2   179.99999915     0.00000009
      48     dih       3       1       4       2   270.00000000     0.07113486
      49     dih       3       1       4       6    90.00000000    -0.07113486
      50     dih       5       1       4       2    90.00000000     0.07113486
      51     dih       5       1       4       6   270.00000000    -0.07113486
      52     dih       2       1       4       6   180.00000000    -0.14226973
      53     dih       6       1       4       2   180.00000000     0.14226973
      54     dih       3       1       2       4   120.00000004     0.15003337
      55     dih       3       1       2       5   240.00000002     0.07501676
      56     dih       5       1       2       4   240.00000002     0.07501661
      57     dih       5       1       2       3   119.99999998    -0.07501676
      58     dih       4       1       2       3   239.99999996    -0.15003337
      59     dih       4       1       2       5   119.99999998    -0.07501661
      60     dih       1       2       4       6     0.00000000    -0.17811874
      61     dih       3       2       4       1    32.20072747    -0.07621558
      62     dih       3       2       4       6    32.20072747    -0.25433432
      63     dih       5       2       4       1   -32.20072748    -0.01709111
      64     dih       5       2       4       6   -32.20072748    -0.19520984
      65     dih       1       2       3       6     0.00000000     0.17811885
      66     dih       4       2       3       1   -32.20072747     0.07621555
      67     dih       4       2       3       6   -32.20072747     0.25433440
      68     dih       5       2       3       1    32.20072748     0.01709120
      69     dih       5       2       3       6    32.20072748     0.19521005
      70     dih       1       4       6       3   -32.20072747     0.07621558
      71     dih       1       4       6       5    32.20072748     0.01709111
      72     dih       2       4       6       1     0.00000000     0.17811874
      73     dih       2       4       6       3   -32.20072747     0.25433432
      74     dih       2       4       6       5    32.20072748     0.19520984
      75     dih       1       2       5       6     0.00000191    -0.00000011
      76     dih       4       2       5       1    32.20072750     0.05912439
      77     dih       4       2       5       6    32.20072750     0.05912427
      78     dih       3       2       5       1   -32.20072750    -0.05912445
      79     dih       3       2       5       6   -32.20072750    -0.05912456
      80     dih       3       1       6       4   239.99999996    -0.15003337
      81     dih       3       1       6       5   119.99999998    -0.07501676
      82     dih       5       1       6       4   119.99999998    -0.07501661
      83     dih       5       1       6       3   240.00000002     0.07501676
      84     dih       4       1       6       3   120.00000004     0.15003337
      85     dih       4       1       6       5   240.00000002     0.07501661
      86     dih       1       3       6       4    32.20072747    -0.07621555
      87     dih       1       3       6       5   -32.20072748    -0.01709120
      88     dih       2       3       6       4    32.20072747    -0.25433440
      89     dih       2       3       6       1     0.00000000    -0.17811885
      90     dih       2       3       6       5   -32.20072748    -0.19521005
      91     dih       1       5       6       4   -32.20072750    -0.05912439
      92     dih       1       5       6       3    32.20072750     0.05912445
      93     dih       2       5       6       4   -32.20072750    -0.05912427
      94     dih       2       5       6       1     0.00000191     0.00000011
      95     dih       2       5       6       3    32.20072750     0.05912456
 
----------------------------------------------------------------------
Geometry Convergence after Step   1       (Hartree/Angstrom,Angstrom)
----------------------------------------------------------------------
current energy                               -0.98554073 Hartree
energy change                      -0.98554073     0.00006000    F
constrained gradient max            0.05906087     0.00100000    F
constrained gradient rms            0.02430904     0.00066667    F
gradient max                        0.05906087
gradient rms                        0.02430904
cart. step max                      0.03003701     0.01000000    F
cart. step rms                      0.01274614     0.00666667    F
 
 
--------
Geometry
--------
Formula: CH3Cl2
Atoms
  Index Symbol   x (angstrom)   y (angstrom)   z (angstrom)
      1      C     0.00000000    -0.00000000     0.00000000
      2     Cl     2.38956719     0.00000000    -0.00000000
      3      H     0.00000000     0.93142118     0.53775627
      4      H     0.00000000    -0.93142118     0.53775627
      5      H     0.00000000     0.00000000    -1.07551253
      6     Cl    -2.38956719     0.00000000    -0.00000000
 
Total System Charge            -1.00000
Bonding info available!
 
 *** GO1_GOStep2 ***

 Energy gradients wrt nuclear displacements
 ==========================================

     Atom      Cartesian (a.u./angstrom)
                 X         Y         Z
 ----------------------------------------
     1 C    -0.000000  0.000000 -0.000285
     2 Cl    0.006527  0.000000 -0.000030
     3 H    -0.000000 -0.012356 -0.007010
     4 H    -0.000000  0.012356 -0.007010
     5 H     0.000000  0.000000  0.014364
     6 Cl   -0.006527 -0.000000 -0.000030
 ----------------------------------------
 Mulliken charges used for AMS results%charges...
Hessian eigenvector     1(     0.024) has overlap with TSRC:    0.10000E+01
Hessian eigenvector     2(     0.024) has overlap with TSRC:    0.20887E-06
Hessian eigenvector     3(     0.038) has overlap with TSRC:    0.31721E-14
Hessian eigenvector     4(     0.038) has overlap with TSRC:    0.13261E-15
Hessian eigenvector     5(     0.055) has overlap with TSRC:    0.10346E-15
Hessian eigenvector     6(     0.113) has overlap with TSRC:    0.52473E-16
Hessian eigenvector     7(     0.113) has overlap with TSRC:    0.34261E-16
Hessian eigenvector     8(     0.211) has overlap with TSRC:    0.19692E-10
Hessian eigenvector     9(     0.229) has overlap with TSRC:    0.40080E-16
Hessian eigenvector    10(     0.274) has overlap with TSRC:    0.21111E-10
Hessian eigenvector    11(     0.310) has overlap with TSRC:    0.65218E-15
Hessian eigenvector    12(     0.310) has overlap with TSRC:    0.21690E-16
Hessian eigenvector     1 has the largest overlap with TSRC:  1.00000
           Primitive Internal Coordinates (atoms in internal order)
-------------------------------------------------------------------------------
    index    type      i       j       k       l   value(A,deg)     Max Ovl Vect
-------------------------------------------------------------------------------
       1     bnd       1       3       0       0     1.07551253    -0.01695099
       2     bnd       1       5       0       0     1.07551253     0.03390203
       3     bnd       1       4       0       0     1.07551253    -0.01695104
       4     bnd       1       2       0       0     2.38956719     0.00000000
       5     bnd       2       4       0       0     2.62045007     0.06761877
       6     bnd       2       3       0       0     2.62045007     0.06761859
       7     bnd       4       6       0       0     2.62045007     0.06761877
       8     bnd       2       5       0       0     2.62045007    -0.13523736
       9     bnd       1       6       0       0     2.38956719     0.00000000
      10     bnd       3       6       0       0     2.62045007     0.06761859
      11     bnd       5       6       0       0     2.62045007    -0.13523736
      12     ang       3       1       5       0   119.99999998     0.07501679
      13     ang       3       1       4       0   120.00000003    -0.15003337
      14     ang       3       1       2       0    90.00000000     0.04106969
      15     ang       3       1       6       0    90.00000000     0.04106969
      16     ang       5       1       4       0   119.99999998     0.07501659
      17     ang       5       1       2       0    90.00000000    -0.08213949
      18     ang       5       1       6       0    90.00000000    -0.08213949
      19     ang       4       1       2       0    90.00000000     0.04106980
      20     ang       4       1       6       0    90.00000000     0.04106980
      21     ang       4       2       3       0    41.64121991    -0.04833195
      22     ang       4       2       5       0    41.64121989     0.02416594
      23     ang       3       2       5       0    41.64121989     0.02416601
      24     ang       1       3       2       0    65.76812135    -0.03137788
      25     ang       1       3       6       0    65.76812135    -0.03137788
      26     ang       2       3       6       0   131.53624270    -0.06275577
      27     ang       1       4       2       0    65.76812135    -0.03137797
      28     ang       1       4       6       0    65.76812135    -0.03137797
      29     ang       2       4       6       0   131.53624270    -0.06275593
      30     ang       1       5       2       0    65.76812136     0.06275585
      31     ang       1       5       6       0    65.76812136     0.06275585
      32     ang       2       5       6       0   131.53624272     0.12551170
      33     ang       4       6       3       0    41.64121991    -0.04833195
      34     ang       4       6       5       0    41.64121989     0.02416594
      35     ang       3       6       5       0    41.64121989     0.02416601
      36     dih       5       1       3       2   270.00000000     0.07113492
      37     dih       5       1       3       6    90.00000000    -0.07113492
      38     dih       4       1       3       2    90.00000000     0.07113492
      39     dih       4       1       3       6   270.00000000    -0.07113492
      40     dih       2       1       3       6   180.00000000    -0.14226984
      41     dih       6       1       3       2   180.00000000     0.14226984
      42     dih       3       1       5       2    90.00000000    -0.00000006
      43     dih       3       1       5       6   270.00000000     0.00000006
      44     dih       4       1       5       2   270.00000000    -0.00000006
      45     dih       4       1       5       6    90.00000000     0.00000006
      46     dih       2       1       5       6   180.00000000     0.00000013
      47     dih       6       1       5       2   180.00000000    -0.00000013
      48     dih       3       1       4       2   270.00000000    -0.07113486
      49     dih       3       1       4       6    90.00000000     0.07113486
      50     dih       5       1       4       2    90.00000000    -0.07113486
      51     dih       5       1       4       6   270.00000000     0.07113486
      52     dih       2       1       4       6   180.00000000     0.14226971
      53     dih       6       1       4       2   180.00000000    -0.14226971
      54     dih       3       1       2       4   120.00000003    -0.15003337
      55     dih       3       1       2       5   240.00000002    -0.07501679
      56     dih       5       1       2       4   240.00000002    -0.07501659
      57     dih       5       1       2       3   119.99999998     0.07501679
      58     dih       4       1       2       3   239.99999997     0.15003337
      59     dih       4       1       2       5   119.99999998     0.07501659
      60     dih       1       2       4       6     0.00000000     0.17811872
      61     dih       3       2       4       1    32.33931398     0.07621559
      62     dih       3       2       4       6    32.33931398     0.25433430
      63     dih       5       2       4       1   -32.33931399     0.01709109
      64     dih       5       2       4       6   -32.33931399     0.19520981
      65     dih       1       2       3       6     0.00000000    -0.17811887
      66     dih       4       2       3       1   -32.33931398    -0.07621555
      67     dih       4       2       3       6   -32.33931398    -0.25433442
      68     dih       5       2       3       1    32.33931399    -0.01709121
      69     dih       5       2       3       6    32.33931399    -0.19521008
      70     dih       1       4       6       3   -32.33931398    -0.07621559
      71     dih       1       4       6       5    32.33931399    -0.01709109
      72     dih       2       4       6       1     0.00000000    -0.17811872
      73     dih       2       4       6       3   -32.33931398    -0.25433430
      74     dih       2       4       6       5    32.33931399    -0.19520981
      75     dih       1       2       5       6     0.00000000     0.00000016
      76     dih       4       2       5       1    32.33931401    -0.05912437
      77     dih       4       2       5       6    32.33931401    -0.05912422
      78     dih       3       2       5       1   -32.33931401     0.05912446
      79     dih       3       2       5       6   -32.33931401     0.05912461
      80     dih       3       1       6       4   239.99999997     0.15003337
      81     dih       3       1       6       5   119.99999998     0.07501679
      82     dih       5       1       6       4   119.99999998     0.07501659
      83     dih       5       1       6       3   240.00000002    -0.07501679
      84     dih       4       1       6       3   120.00000003    -0.15003337
      85     dih       4       1       6       5   240.00000002    -0.07501659
      86     dih       1       3       6       4    32.33931398     0.07621555
      87     dih       1       3       6       5   -32.33931399     0.01709121
      88     dih       2       3       6       4    32.33931398     0.25433442
      89     dih       2       3       6       1     0.00000000     0.17811887
      90     dih       2       3       6       5   -32.33931399     0.19521008
      91     dih       1       5       6       4   -32.33931401     0.05912437
      92     dih       1       5       6       3    32.33931401    -0.05912446
      93     dih       2       5       6       4   -32.33931401     0.05912422
      94     dih       2       5       6       1     0.00000000    -0.00000016
      95     dih       2       5       6       3    32.33931401    -0.05912461
 
----------------------------------------------------------------------
Geometry Convergence after Step   2       (Hartree/Angstrom,Angstrom)
----------------------------------------------------------------------
current energy                               -0.98892792 Hartree
energy change                      -0.00338718     0.00006000    F
constrained gradient max            0.01425798     0.00100000    F
constrained gradient rms            0.00621416     0.00066667    F
gradient max                        0.01425798
gradient rms                        0.00621416
cart. step max                      0.01030788     0.01000000    F
cart. step rms                      0.00459999     0.00666667    T
 
 
--------
Geometry
--------
Formula: CH3Cl2
Atoms
  Index Symbol   x (angstrom)   y (angstrom)   z (angstrom)
      1      C     0.00000000    -0.00000000     0.00000000
      2     Cl     2.38399398     0.00000000    -0.00000000
      3      H     0.00000000     0.94034806     0.54291021
      4      H     0.00000000    -0.94034806     0.54291021
      5      H     0.00000000     0.00000000    -1.08582041
      6     Cl    -2.38399398     0.00000000    -0.00000000
 
Total System Charge            -1.00000
Bonding info available!
 
 *** GO1_GOStep3 ***

 Energy gradients wrt nuclear displacements
 ==========================================

     Atom      Cartesian (a.u./angstrom)
                 X         Y         Z
 ----------------------------------------
     1 C     0.000000  0.000000 -0.000286
     2 Cl    0.005159  0.000000 -0.000029
     3 H    -0.000000 -0.000461 -0.000142
     4 H    -0.000000  0.000461 -0.000142
     5 H    -0.000000 -0.000000  0.000626
     6 Cl   -0.005159 -0.000000 -0.000029
 ----------------------------------------
 Mulliken charges used for AMS results%charges...
Hessian eigenvector     1(     0.024) has overlap with TSRC:    0.10000E+01
Hessian eigenvector     2(     0.024) has overlap with TSRC:    0.40012E-07
Hessian eigenvector     3(     0.038) has overlap with TSRC:    0.45412E-14
Hessian eigenvector     4(     0.038) has overlap with TSRC:    0.11632E-15
Hessian eigenvector     5(     0.055) has overlap with TSRC:    0.73884E-17
Hessian eigenvector     6(     0.113) has overlap with TSRC:    0.11175E-15
Hessian eigenvector     7(     0.113) has overlap with TSRC:    0.17630E-17
Hessian eigenvector     8(     0.150) has overlap with TSRC:    0.23316E-10
Hessian eigenvector     9(     0.229) has overlap with TSRC:    0.29382E-16
Hessian eigenvector    10(     0.282) has overlap with TSRC:    0.82787E-11
Hessian eigenvector    11(     0.310) has overlap with TSRC:    0.60408E-15
Hessian eigenvector    12(     0.310) has overlap with TSRC:    0.22833E-17
Hessian eigenvector     1 has the largest overlap with TSRC:  1.00000
           Primitive Internal Coordinates (atoms in internal order)
-------------------------------------------------------------------------------
    index    type      i       j       k       l   value(A,deg)     Max Ovl Vect
-------------------------------------------------------------------------------
       1     bnd       1       3       0       0     1.08582041    -0.01695099
       2     bnd       1       5       0       0     1.08582041     0.03390203
       3     bnd       1       4       0       0     1.08582041    -0.01695104
       4     bnd       1       2       0       0     2.38399398     0.00000000
       5     bnd       2       4       0       0     2.61962464     0.06761876
       6     bnd       2       3       0       0     2.61962464     0.06761859
       7     bnd       4       6       0       0     2.61962464     0.06761876
       8     bnd       2       5       0       0     2.61962464    -0.13523736
       9     bnd       1       6       0       0     2.38399398     0.00000000
      10     bnd       3       6       0       0     2.61962464     0.06761859
      11     bnd       5       6       0       0     2.61962464    -0.13523736
      12     ang       3       1       5       0   119.99999998     0.07501678
      13     ang       3       1       4       0   120.00000003    -0.15003337
      14     ang       3       1       2       0    90.00000000     0.04106969
      15     ang       3       1       6       0    90.00000000     0.04106969
      16     ang       5       1       4       0   119.99999998     0.07501659
      17     ang       5       1       2       0    90.00000000    -0.08213949
      18     ang       5       1       6       0    90.00000000    -0.08213949
      19     ang       4       1       2       0    90.00000000     0.04106980
      20     ang       4       1       6       0    90.00000000     0.04106980
      21     ang       4       2       3       0    42.07303584    -0.04833195
      22     ang       4       2       5       0    42.07303582     0.02416595
      23     ang       3       2       5       0    42.07303582     0.02416601
      24     ang       1       3       2       0    65.51250342    -0.03137789
      25     ang       1       3       6       0    65.51250342    -0.03137789
      26     ang       2       3       6       0   131.02500684    -0.06275577
      27     ang       1       4       2       0    65.51250342    -0.03137796
      28     ang       1       4       6       0    65.51250342    -0.03137796
      29     ang       2       4       6       0   131.02500684    -0.06275593
      30     ang       1       5       2       0    65.51250343     0.06275585
      31     ang       1       5       6       0    65.51250343     0.06275585
      32     ang       2       5       6       0   131.02500686     0.12551170
      33     ang       4       6       3       0    42.07303584    -0.04833195
      34     ang       4       6       5       0    42.07303582     0.02416595
      35     ang       3       6       5       0    42.07303582     0.02416601
      36     dih       5       1       3       2   270.00000000     0.07113492
      37     dih       5       1       3       6    90.00000000    -0.07113492
      38     dih       4       1       3       2    90.00000000     0.07113492
      39     dih       4       1       3       6   270.00000000    -0.07113492
      40     dih       2       1       3       6   180.00000000    -0.14226983
      41     dih       6       1       3       2   180.00000000     0.14226983
      42     dih       3       1       5       2    90.00000000    -0.00000006
      43     dih       3       1       5       6   270.00000000     0.00000006
      44     dih       4       1       5       2   270.00000000    -0.00000006
      45     dih       4       1       5       6    90.00000000     0.00000006
      46     dih       2       1       5       6   180.00000000     0.00000012
      47     dih       6       1       5       2   180.00000000    -0.00000012
      48     dih       3       1       4       2   270.00000000    -0.07113486
      49     dih       3       1       4       6    90.00000000     0.07113486
      50     dih       5       1       4       2    90.00000000    -0.07113486
      51     dih       5       1       4       6   270.00000000     0.07113486
      52     dih       2       1       4       6   180.00000000     0.14226971
      53     dih       6       1       4       2   180.00000000    -0.14226971
      54     dih       3       1       2       4   120.00000003    -0.15003337
      55     dih       3       1       2       5   240.00000002    -0.07501678
      56     dih       5       1       2       4   240.00000002    -0.07501659
      57     dih       5       1       2       3   119.99999998     0.07501678
      58     dih       4       1       2       3   239.99999997     0.15003337
      59     dih       4       1       2       5   119.99999998     0.07501659
      60     dih       1       2       4       6     0.00000000     0.17811872
      61     dih       3       2       4       1    32.39164517     0.07621558
      62     dih       3       2       4       6    32.39164517     0.25433430
      63     dih       5       2       4       1   -32.39164519     0.01709110
      64     dih       5       2       4       6   -32.39164519     0.19520981
      65     dih       1       2       3       6     0.00000000    -0.17811887
      66     dih       4       2       3       1   -32.39164517    -0.07621555
      67     dih       4       2       3       6   -32.39164517    -0.25433442
      68     dih       5       2       3       1    32.39164519    -0.01709121
      69     dih       5       2       3       6    32.39164519    -0.19521008
      70     dih       1       4       6       3   -32.39164517    -0.07621558
      71     dih       1       4       6       5    32.39164519    -0.01709110
      72     dih       2       4       6       1     0.00000000    -0.17811872
      73     dih       2       4       6       3   -32.39164517    -0.25433430
      74     dih       2       4       6       5    32.39164519    -0.19520981
      75     dih       1       2       5       6     0.00000000     0.00000015
      76     dih       4       2       5       1    32.39164520    -0.05912438
      77     dih       4       2       5       6    32.39164520    -0.05912423
      78     dih       3       2       5       1   -32.39164520     0.05912445
      79     dih       3       2       5       6   -32.39164520     0.05912460
      80     dih       3       1       6       4   239.99999997     0.15003337
      81     dih       3       1       6       5   119.99999998     0.07501678
      82     dih       5       1       6       4   119.99999998     0.07501659
      83     dih       5       1       6       3   240.00000002    -0.07501678
      84     dih       4       1       6       3   120.00000003    -0.15003337
      85     dih       4       1       6       5   240.00000002    -0.07501659
      86     dih       1       3       6       4    32.39164517     0.07621555
      87     dih       1       3       6       5   -32.39164519     0.01709121
      88     dih       2       3       6       4    32.39164517     0.25433442
      89     dih       2       3       6       1     0.00000000     0.17811887
      90     dih       2       3       6       5   -32.39164519     0.19521008
      91     dih       1       5       6       4   -32.39164520     0.05912438
      92     dih       1       5       6       3    32.39164520    -0.05912445
      93     dih       2       5       6       4   -32.39164520     0.05912423
      94     dih       2       5       6       1     0.00000000    -0.00000015
      95     dih       2       5       6       3    32.39164520    -0.05912460
 
----------------------------------------------------------------------
Geometry Convergence after Step   3       (Hartree/Angstrom,Angstrom)
----------------------------------------------------------------------
current energy                               -0.98920858 Hartree
energy change                      -0.00028066     0.00006000    F
constrained gradient max            0.00515851     0.00100000    F
constrained gradient rms            0.00173267     0.00066667    F
gradient max                        0.00515851
gradient rms                        0.00173267
cart. step max                      0.00301762     0.01000000    T
cart. step rms                      0.00119619     0.00666667    T
 
 
--------
Geometry
--------
Formula: CH3Cl2
Atoms
  Index Symbol   x (angstrom)   y (angstrom)   z (angstrom)
      1      C     0.00000000    -0.00000000     0.00000000
      2     Cl     2.38097636     0.00000000    -0.00000000
      3      H     0.00000000     0.94172135     0.54370307
      4      H     0.00000000    -0.94172135     0.54370307
      5      H     0.00000000     0.00000000    -1.08740615
      6     Cl    -2.38097636     0.00000000    -0.00000000
 
Total System Charge            -1.00000
Bonding info available!
 
 *** GO1_GOStep4 ***

 Energy gradients wrt nuclear displacements
 ==========================================

     Atom      Cartesian (a.u./angstrom)
                 X         Y         Z
 ----------------------------------------
     1 C     0.000000  0.000000 -0.000287
     2 Cl    0.004489  0.000000 -0.000028
     3 H    -0.000000  0.001331  0.000894
     4 H    -0.000000 -0.001331  0.000894
     5 H    -0.000000 -0.000000 -0.001444
     6 Cl   -0.004489 -0.000000 -0.000028
 ----------------------------------------
 Mulliken charges used for AMS results%charges...
Hessian eigenvector     1(     0.024) has overlap with TSRC:    0.10000E+01
Hessian eigenvector     2(     0.024) has overlap with TSRC:    0.60279E-06
Hessian eigenvector     3(     0.027) has overlap with TSRC:    0.15960E-04
Hessian eigenvector     4(     0.038) has overlap with TSRC:    0.13874E-10
Hessian eigenvector     5(     0.038) has overlap with TSRC:    0.27477E-15
Hessian eigenvector     6(     0.055) has overlap with TSRC:    0.64054E-16
Hessian eigenvector     7(     0.113) has overlap with TSRC:    0.12038E-15
Hessian eigenvector     8(     0.113) has overlap with TSRC:    0.78203E-16
Hessian eigenvector     9(     0.229) has overlap with TSRC:    0.51469E-17
Hessian eigenvector    10(     0.273) has overlap with TSRC:    0.16992E-06
Hessian eigenvector    11(     0.310) has overlap with TSRC:    0.32484E-13
Hessian eigenvector    12(     0.310) has overlap with TSRC:    0.50592E-16
Hessian eigenvector     1 has the largest overlap with TSRC:  1.00000
           Primitive Internal Coordinates (atoms in internal order)
-------------------------------------------------------------------------------
    index    type      i       j       k       l   value(A,deg)     Max Ovl Vect
-------------------------------------------------------------------------------
       1     bnd       1       3       0       0     1.08740615    -0.01695055
       2     bnd       1       5       0       0     1.08740615     0.03390249
       3     bnd       1       4       0       0     1.08740615    -0.01695055
       4     bnd       1       2       0       0     2.38097636    -0.00000601
       5     bnd       2       4       0       0     2.61753712     0.06761337
       6     bnd       2       3       0       0     2.61753712     0.06761334
       7     bnd       4       6       0       0     2.61753712     0.06761337
       8     bnd       2       5       0       0     2.61753712    -0.13524268
       9     bnd       1       6       0       0     2.38097636    -0.00000601
      10     bnd       3       6       0       0     2.61753712     0.06761334
      11     bnd       5       6       0       0     2.61753712    -0.13524268
      12     ang       3       1       5       0   119.99999998     0.07501670
      13     ang       3       1       4       0   120.00000003    -0.15003337
      14     ang       3       1       2       0    90.00000000     0.04106974
      15     ang       3       1       6       0    90.00000000     0.04106974
      16     ang       5       1       4       0   119.99999998     0.07501667
      17     ang       5       1       2       0    90.00000000    -0.08213949
      18     ang       5       1       6       0    90.00000000    -0.08213949
      19     ang       4       1       2       0    90.00000000     0.04106975
      20     ang       4       1       6       0    90.00000000     0.04106975
      21     ang       4       2       3       0    42.17261327    -0.04833099
      22     ang       4       2       5       0    42.17261325     0.02416694
      23     ang       3       2       5       0    42.17261325     0.02416695
      24     ang       1       3       2       0    65.45353645    -0.03137849
      25     ang       1       3       6       0    65.45353645    -0.03137849
      26     ang       2       3       6       0   130.90707290    -0.06275698
      27     ang       1       4       2       0    65.45353645    -0.03137850
      28     ang       1       4       6       0    65.45353645    -0.03137850
      29     ang       2       4       6       0   130.90707290    -0.06275701
      30     ang       1       5       2       0    65.45353646     0.06275528
      31     ang       1       5       6       0    65.45353646     0.06275528
      32     ang       2       5       6       0   130.90707292     0.12551056
      33     ang       4       6       3       0    42.17261327    -0.04833099
      34     ang       4       6       5       0    42.17261325     0.02416694
      35     ang       3       6       5       0    42.17261325     0.02416695
      36     dih       5       1       3       2   270.00000000     0.07113489
      37     dih       5       1       3       6    90.00000000    -0.07113489
      38     dih       4       1       3       2    90.00000000     0.07113489
      39     dih       4       1       3       6   270.00000000    -0.07113489
      40     dih       2       1       3       6   179.99999852    -0.14226978
      41     dih       6       1       3       2   180.00000148     0.14226978
      42     dih       3       1       5       2    90.00000000    -0.00000001
      43     dih       3       1       5       6   270.00000000     0.00000001
      44     dih       4       1       5       2   270.00000000    -0.00000001
      45     dih       4       1       5       6    90.00000000     0.00000001
      46     dih       2       1       5       6   180.00000000     0.00000002
      47     dih       6       1       5       2   180.00000000    -0.00000002
      48     dih       3       1       4       2   270.00000000    -0.07113488
      49     dih       3       1       4       6    90.00000000     0.07113488
      50     dih       5       1       4       2    90.00000000    -0.07113488
      51     dih       5       1       4       6   270.00000000     0.07113488
      52     dih       2       1       4       6   180.00000148     0.14226976
      53     dih       6       1       4       2   179.99999852    -0.14226976
      54     dih       3       1       2       4   120.00000003    -0.15003337
      55     dih       3       1       2       5   240.00000002    -0.07501670
      56     dih       5       1       2       4   240.00000002    -0.07501667
      57     dih       5       1       2       3   119.99999998     0.07501670
      58     dih       4       1       2       3   239.99999997     0.15003337
      59     dih       4       1       2       5   119.99999998     0.07501667
      60     dih       1       2       4       6     0.00000000     0.17811878
      61     dih       3       2       4       1    32.40381188     0.07621568
      62     dih       3       2       4       6    32.40381188     0.25433446
      63     dih       5       2       4       1   -32.40381190     0.01709103
      64     dih       5       2       4       6   -32.40381190     0.19520981
      65     dih       1       2       3       6     0.00000000    -0.17811881
      66     dih       4       2       3       1   -32.40381188    -0.07621568
      67     dih       4       2       3       6   -32.40381188    -0.25433448
      68     dih       5       2       3       1    32.40381190    -0.01709105
      69     dih       5       2       3       6    32.40381190    -0.19520986
      70     dih       1       4       6       3   -32.40381188    -0.07621568
      71     dih       1       4       6       5    32.40381190    -0.01709103
      72     dih       2       4       6       1     0.00000000    -0.17811878
      73     dih       2       4       6       3   -32.40381188    -0.25433446
      74     dih       2       4       6       5    32.40381190    -0.19520981
      75     dih       1       2       5       6     0.00000000     0.00000003
      76     dih       4       2       5       1    32.40381192    -0.05912430
      77     dih       4       2       5       6    32.40381192    -0.05912427
      78     dih       3       2       5       1   -32.40381192     0.05912431
      79     dih       3       2       5       6   -32.40381192     0.05912433
      80     dih       3       1       6       4   239.99999997     0.15003337
      81     dih       3       1       6       5   119.99999998     0.07501670
      82     dih       5       1       6       4   119.99999998     0.07501667
      83     dih       5       1       6       3   240.00000002    -0.07501670
      84     dih       4       1       6       3   120.00000003    -0.15003337
      85     dih       4       1       6       5   240.00000002    -0.07501667
      86     dih       1       3       6       4    32.40381188     0.07621568
      87     dih       1       3       6       5   -32.40381190     0.01709105
      88     dih       2       3       6       4    32.40381188     0.25433448
      89     dih       2       3       6       1     0.00000000     0.17811881
      90     dih       2       3       6       5   -32.40381190     0.19520986
      91     dih       1       5       6       4   -32.40381192     0.05912430
      92     dih       1       5       6       3    32.40381192    -0.05912431
      93     dih       2       5       6       4   -32.40381192     0.05912427
      94     dih       2       5       6       1     0.00000000    -0.00000003
      95     dih       2       5       6       3    32.40381192    -0.05912433
 Residual max backtransformation error   0.2214E-05
 
----------------------------------------------------------------------
Geometry Convergence after Step   4       (Hartree/Angstrom,Angstrom)
----------------------------------------------------------------------
current energy                               -0.98923294 Hartree
energy change                      -0.00002437     0.00006000    T
constrained gradient max            0.00448908     0.00100000    F
constrained gradient rms            0.00162432     0.00066667    F
gradient max                        0.00448908
gradient rms                        0.00162432
cart. step max                      0.01275664     0.01000000    F
cart. step rms                      0.00425567     0.00666667    T
 
 
--------
Geometry
--------
Formula: CH3Cl2
Atoms
  Index Symbol   x (angstrom)   y (angstrom)   z (angstrom)
      1      C     0.00000000    -0.00000000     0.00000000
      2     Cl     2.36821972     0.00000000    -0.00000000
      3      H     0.00000000     0.94208524     0.54391317
      4      H     0.00000000    -0.94208524     0.54391317
      5      H     0.00000000     0.00000000    -1.08782634
      6     Cl    -2.36821972     0.00000000    -0.00000000
 
Total System Charge            -1.00000
Bonding info available!
 
 *** GO1_GOStep5 ***

 Energy gradients wrt nuclear displacements
 ==========================================

     Atom      Cartesian (a.u./angstrom)
                 X         Y         Z
 ----------------------------------------
     1 C    -0.000000  0.000000 -0.000288
     2 Cl    0.001697  0.000000 -0.000028
     3 H     0.000000  0.001934  0.001243
     4 H    -0.000000 -0.001934  0.001243
     5 H     0.000000 -0.000000 -0.002143
     6 Cl   -0.001697 -0.000000 -0.000028
 ----------------------------------------
 Mulliken charges used for AMS results%charges...
Hessian eigenvector     1(     0.017) has overlap with TSRC:    0.15276E-04
Hessian eigenvector     2(     0.024) has overlap with TSRC:    0.10000E+01
Hessian eigenvector     3(     0.024) has overlap with TSRC:    0.15839E-06
Hessian eigenvector     4(     0.038) has overlap with TSRC:    0.59477E-10
Hessian eigenvector     5(     0.038) has overlap with TSRC:    0.30703E-16
Hessian eigenvector     6(     0.055) has overlap with TSRC:    0.49953E-16
Hessian eigenvector     7(     0.113) has overlap with TSRC:    0.17222E-15
Hessian eigenvector     8(     0.113) has overlap with TSRC:    0.57417E-16
Hessian eigenvector     9(     0.229) has overlap with TSRC:    0.11851E-17
Hessian eigenvector    10(     0.265) has overlap with TSRC:    0.13501E-05
Hessian eigenvector    11(     0.310) has overlap with TSRC:    0.62567E-11
Hessian eigenvector    12(     0.310) has overlap with TSRC:    0.67547E-16
Hessian eigenvector     2 has the largest overlap with TSRC:  1.00000
           Primitive Internal Coordinates (atoms in internal order)
-------------------------------------------------------------------------------
    index    type      i       j       k       l   value(A,deg)     Max Ovl Vect
-------------------------------------------------------------------------------
       1     bnd       1       3       0       0     1.08782634     0.01695105
       2     bnd       1       5       0       0     1.08782634    -0.03390199
       3     bnd       1       4       0       0     1.08782634     0.01695106
       4     bnd       1       2       0       0     2.36821972     0.00000023
       5     bnd       2       4       0       0     2.60611411    -0.06761849
       6     bnd       2       3       0       0     2.60611411    -0.06761842
       7     bnd       4       6       0       0     2.60611411    -0.06761849
       8     bnd       2       5       0       0     2.60611411     0.13523758
       9     bnd       1       6       0       0     2.36821972     0.00000023
      10     bnd       3       6       0       0     2.60611411    -0.06761842
      11     bnd       5       6       0       0     2.60611411     0.13523758
      12     ang       3       1       5       0   119.99999998    -0.07501672
      13     ang       3       1       4       0   120.00000003     0.15003337
      14     ang       3       1       2       0    90.00000000    -0.04106973
      15     ang       3       1       6       0    90.00000000    -0.04106973
      16     ang       5       1       4       0   119.99999998    -0.07501665
      17     ang       5       1       2       0    90.00000000     0.08213949
      18     ang       5       1       6       0    90.00000000     0.08213949
      19     ang       4       1       2       0    90.00000000    -0.04106977
      20     ang       4       1       6       0    90.00000000    -0.04106977
      21     ang       4       2       3       0    42.38351008     0.04833193
      22     ang       4       2       5       0    42.38351006    -0.02416598
      23     ang       3       2       5       0    42.38351006    -0.02416601
      24     ang       1       3       2       0    65.32862293     0.03137792
      25     ang       1       3       6       0    65.32862293     0.03137792
      26     ang       2       3       6       0   130.65724587     0.06275584
      27     ang       1       4       2       0    65.32862293     0.03137795
      28     ang       1       4       6       0    65.32862293     0.03137795
      29     ang       2       4       6       0   130.65724587     0.06275590
      30     ang       1       5       2       0    65.32862294    -0.06275584
      31     ang       1       5       6       0    65.32862294    -0.06275584
      32     ang       2       5       6       0   130.65724589    -0.12551168
      33     ang       4       6       3       0    42.38351008     0.04833193
      34     ang       4       6       5       0    42.38351006    -0.02416598
      35     ang       3       6       5       0    42.38351006    -0.02416601
      36     dih       5       1       3       2   270.00000000    -0.07113490
      37     dih       5       1       3       6    90.00000000     0.07113490
      38     dih       4       1       3       2    90.00000000    -0.07113490
      39     dih       4       1       3       6   270.00000000     0.07113490
      40     dih       2       1       3       6   180.00000000     0.14226980
      41     dih       6       1       3       2   180.00000000    -0.14226980
      42     dih       3       1       5       2    90.00000000     0.00000002
      43     dih       3       1       5       6   270.00000000    -0.00000002
      44     dih       4       1       5       2   270.00000000     0.00000002
      45     dih       4       1       5       6    90.00000000    -0.00000002
      46     dih       2       1       5       6   180.00000000    -0.00000005
      47     dih       6       1       5       2   180.00000000     0.00000005
      48     dih       3       1       4       2   270.00000000     0.07113488
      49     dih       3       1       4       6    90.00000000    -0.07113488
      50     dih       5       1       4       2    90.00000000     0.07113488
      51     dih       5       1       4       6   270.00000000    -0.07113488
      52     dih       2       1       4       6   180.00000000    -0.14226975
      53     dih       6       1       4       2   180.00000000     0.14226975
      54     dih       3       1       2       4   120.00000003     0.15003337
      55     dih       3       1       2       5   240.00000002     0.07501672
      56     dih       5       1       2       4   240.00000002     0.07501665
      57     dih       5       1       2       3   119.99999998    -0.07501672
      58     dih       4       1       2       3   239.99999997    -0.15003337
      59     dih       4       1       2       5   119.99999998    -0.07501665
      60     dih       1       2       4       6     0.00000000    -0.17811876
      61     dih       3       2       4       1    32.42970313    -0.07621558
      62     dih       3       2       4       6    32.42970313    -0.25433434
      63     dih       5       2       4       1   -32.42970315    -0.01709113
      64     dih       5       2       4       6   -32.42970315    -0.19520989
      65     dih       1       2       3       6     0.00000000     0.17811882
      66     dih       4       2       3       1   -32.42970313     0.07621556
      67     dih       4       2       3       6   -32.42970313     0.25433439
      68     dih       5       2       3       1    32.42970315     0.01709117
      69     dih       5       2       3       6    32.42970315     0.19520999
      70     dih       1       4       6       3   -32.42970313     0.07621558
      71     dih       1       4       6       5    32.42970315     0.01709113
      72     dih       2       4       6       1     0.00000000     0.17811876
      73     dih       2       4       6       3   -32.42970313     0.25433434
      74     dih       2       4       6       5    32.42970315     0.19520989
      75     dih       1       2       5       6     0.00000000    -0.00000006
      76     dih       4       2       5       1    32.42970316     0.05912440
      77     dih       4       2       5       6    32.42970316     0.05912434
      78     dih       3       2       5       1   -32.42970316    -0.05912443
      79     dih       3       2       5       6   -32.42970316    -0.05912449
      80     dih       3       1       6       4   239.99999997    -0.15003337
      81     dih       3       1       6       5   119.99999998    -0.07501672
      82     dih       5       1       6       4   119.99999998    -0.07501665
      83     dih       5       1       6       3   240.00000002     0.07501672
      84     dih       4       1       6       3   120.00000003     0.15003337
      85     dih       4       1       6       5   240.00000002     0.07501665
      86     dih       1       3       6       4    32.42970313    -0.07621556
      87     dih       1       3       6       5   -32.42970315    -0.01709117
      88     dih       2       3       6       4    32.42970313    -0.25433439
      89     dih       2       3       6       1     0.00000000    -0.17811882
      90     dih       2       3       6       5   -32.42970315    -0.19520999
      91     dih       1       5       6       4   -32.42970316    -0.05912440
      92     dih       1       5       6       3    32.42970316     0.05912443
      93     dih       2       5       6       4   -32.42970316    -0.05912434
      94     dih       2       5       6       1     0.00000000     0.00000006
      95     dih       2       5       6       3    32.42970316     0.05912449
 
----------------------------------------------------------------------
Geometry Convergence after Step   5       (Hartree/Angstrom,Angstrom)
----------------------------------------------------------------------
current energy                               -0.98930675 Hartree
energy change                      -0.00007380     0.00006000    F
constrained gradient max            0.00224492     0.00100000    F
constrained gradient rms            0.00107696     0.00066667    F
gradient max                        0.00224492
gradient rms                        0.00107696
cart. step max                      0.00782246     0.01000000    T
cart. step rms                      0.00267839     0.00666667    T
 
 
--------
Geometry
--------
Formula: CH3Cl2
Atoms
  Index Symbol   x (angstrom)   y (angstrom)   z (angstrom)
      1      C     0.00000000    -0.00000000     0.00000000
      2     Cl     2.36039725     0.00000000    -0.00000000
      3      H     0.00000000     0.94078658     0.54316338
      4      H     0.00000000    -0.94078658     0.54316338
      5      H     0.00000000     0.00000000    -1.08632677
      6     Cl    -2.36039725     0.00000000    -0.00000000
 
Total System Charge            -1.00000
Bonding info available!
 
 *** GO1_GOStep6 ***

 Energy gradients wrt nuclear displacements
 ==========================================

     Atom      Cartesian (a.u./angstrom)
                 X         Y         Z
 ----------------------------------------
     1 C    -0.000000  0.000000 -0.000289
     2 Cl   -0.000053  0.000000 -0.000028
     3 H     0.000000  0.000361  0.000337
     4 H     0.000000 -0.000361  0.000337
     5 H     0.000000 -0.000000 -0.000329
     6 Cl    0.000053 -0.000000 -0.000028
 ----------------------------------------
 Mulliken charges used for AMS results%charges...
Hessian eigenvector     1(     0.018) has overlap with TSRC:    0.34699E-06
Hessian eigenvector     2(     0.024) has overlap with TSRC:    0.98754E+00
Hessian eigenvector     3(     0.024) has overlap with TSRC:    0.16192E-05
Hessian eigenvector     4(     0.038) has overlap with TSRC:    0.29112E-12
Hessian eigenvector     5(     0.038) has overlap with TSRC:    0.43966E-15
Hessian eigenvector     6(     0.055) has overlap with TSRC:    0.75296E-17
Hessian eigenvector     7(     0.113) has overlap with TSRC:    0.13949E-15
Hessian eigenvector     8(     0.113) has overlap with TSRC:    0.60519E-16
Hessian eigenvector     9(     0.229) has overlap with TSRC:    0.60267E-16
Hessian eigenvector    10(     0.263) has overlap with TSRC:    0.13379E-07
Hessian eigenvector    11(     0.310) has overlap with TSRC:    0.43620E-13
Hessian eigenvector    12(     0.310) has overlap with TSRC:    0.67799E-16
Hessian eigenvector     2 has the largest overlap with TSRC:  0.98754
           Primitive Internal Coordinates (atoms in internal order)
-------------------------------------------------------------------------------
    index    type      i       j       k       l   value(A,deg)     Max Ovl Vect
-------------------------------------------------------------------------------
       1     bnd       1       3       0       0     1.08632677     0.01695100
       2     bnd       1       5       0       0     1.08632677    -0.03390199
       3     bnd       1       4       0       0     1.08632677     0.01695111
       4     bnd       1       2       0       0     2.36039725     0.00000010
       5     bnd       2       4       0       0     2.59838047    -0.06761880
       6     bnd       2       3       0       0     2.59838047    -0.06761835
       7     bnd       4       6       0       0     2.59838047    -0.06761880
       8     bnd       2       5       0       0     2.59838047     0.13523746
       9     bnd       1       6       0       0     2.36039725     0.00000010
      10     bnd       3       6       0       0     2.59838047    -0.06761835
      11     bnd       5       6       0       0     2.59838047     0.13523746
      12     ang       3       1       5       0   119.99999998    -0.07501694
      13     ang       3       1       4       0   120.00000003     0.15003337
      14     ang       3       1       2       0    90.00000000    -0.04106961
      15     ang       3       1       6       0    90.00000000    -0.04106961
      16     ang       5       1       4       0   119.99999998    -0.07501644
      17     ang       5       1       2       0    90.00000000     0.08213949
      18     ang       5       1       6       0    90.00000000     0.08213949
      19     ang       4       1       2       0    90.00000000    -0.04106988
      20     ang       4       1       6       0    90.00000000    -0.04106988
      21     ang       4       2       3       0    42.45432518     0.04833195
      22     ang       4       2       5       0    42.45432516    -0.02416590
      23     ang       3       2       5       0    42.45432516    -0.02416606
      24     ang       1       3       2       0    65.28667132     0.03137782
      25     ang       1       3       6       0    65.28667132     0.03137782
      26     ang       2       3       6       0   130.57334263     0.06275564
      27     ang       1       4       2       0    65.28667132     0.03137803
      28     ang       1       4       6       0    65.28667132     0.03137803
      29     ang       2       4       6       0   130.57334263     0.06275606
      30     ang       1       5       2       0    65.28667133    -0.06275585
      31     ang       1       5       6       0    65.28667133    -0.06275585
      32     ang       2       5       6       0   130.57334266    -0.12551170
      33     ang       4       6       3       0    42.45432518     0.04833195
      34     ang       4       6       5       0    42.45432516    -0.02416590
      35     ang       3       6       5       0    42.45432516    -0.02416606
      36     dih       5       1       3       2   270.00000000    -0.07113497
      37     dih       5       1       3       6    90.00000000     0.07113497
      38     dih       4       1       3       2    90.00000000    -0.07113497
      39     dih       4       1       3       6   270.00000000     0.07113497
      40     dih       2       1       3       6   180.00000000     0.14226993
      41     dih       6       1       3       2   180.00000000    -0.14226993
      42     dih       3       1       5       2    90.00000000     0.00000016
      43     dih       3       1       5       6   270.00000000    -0.00000016
      44     dih       4       1       5       2   270.00000000     0.00000016
      45     dih       4       1       5       6    90.00000000    -0.00000016
      46     dih       2       1       5       6   180.00000000    -0.00000032
      47     dih       6       1       5       2   180.00000000     0.00000032
      48     dih       3       1       4       2   270.00000000     0.07113481
      49     dih       3       1       4       6    90.00000000    -0.07113481
      50     dih       5       1       4       2    90.00000000     0.07113481
      51     dih       5       1       4       6   270.00000000    -0.07113481
      52     dih       2       1       4       6   180.00000000    -0.14226962
      53     dih       6       1       4       2   180.00000000     0.14226962
      54     dih       3       1       2       4   120.00000003     0.15003337
      55     dih       3       1       2       5   240.00000002     0.07501694
      56     dih       5       1       2       4   240.00000002     0.07501644
      57     dih       5       1       2       3   119.99999998    -0.07501694
      58     dih       4       1       2       3   239.99999997    -0.15003337
      59     dih       4       1       2       5   119.99999998    -0.07501644
      60     dih       1       2       4       6     0.00000000    -0.17811860
      61     dih       3       2       4       1    32.43843452    -0.07621561
      62     dih       3       2       4       6    32.43843452    -0.25433421
      63     dih       5       2       4       1   -32.43843454    -0.01709100
      64     dih       5       2       4       6   -32.43843454    -0.19520960
      65     dih       1       2       3       6     0.00000000     0.17811899
      66     dih       4       2       3       1   -32.43843452     0.07621552
      67     dih       4       2       3       6   -32.43843452     0.25433451
      68     dih       5       2       3       1    32.43843454     0.01709130
      69     dih       5       2       3       6    32.43843454     0.19521029
      70     dih       1       4       6       3   -32.43843452     0.07621561
      71     dih       1       4       6       5    32.43843454     0.01709100
      72     dih       2       4       6       1     0.00000000     0.17811860
      73     dih       2       4       6       3   -32.43843452     0.25433421
      74     dih       2       4       6       5    32.43843454     0.19520960
      75     dih       1       2       5       6     0.00000000    -0.00000040
      76     dih       4       2       5       1    32.43843456     0.05912431
      77     dih       4       2       5       6    32.43843456     0.05912392
      78     dih       3       2       5       1   -32.43843456    -0.05912452
      79     dih       3       2       5       6   -32.43843456    -0.05912491
      80     dih       3       1       6       4   239.99999997    -0.15003337
      81     dih       3       1       6       5   119.99999998    -0.07501694
      82     dih       5       1       6       4   119.99999998    -0.07501644
      83     dih       5       1       6       3   240.00000002     0.07501694
      84     dih       4       1       6       3   120.00000003     0.15003337
      85     dih       4       1       6       5   240.00000002     0.07501644
      86     dih       1       3       6       4    32.43843452    -0.07621552
      87     dih       1       3       6       5   -32.43843454    -0.01709130
      88     dih       2       3       6       4    32.43843452    -0.25433451
      89     dih       2       3       6       1     0.00000000    -0.17811899
      90     dih       2       3       6       5   -32.43843454    -0.19521029
      91     dih       1       5       6       4   -32.43843456    -0.05912431
      92     dih       1       5       6       3    32.43843456     0.05912452
      93     dih       2       5       6       4   -32.43843456    -0.05912392
      94     dih       2       5       6       1     0.00000000     0.00000040
      95     dih       2       5       6       3    32.43843456     0.05912491
 
---------------------------------------------------------
Geometry Convergence after Step   6       ** CONVERGED **
---------------------------------------------------------
current energy                               -0.98932600 Hartree
energy change                      -0.00001926     0.00006000    T
constrained gradient max            0.00043052     0.00100000    T
constrained gradient rms            0.00017665     0.00066667    T
gradient max                        0.00043052
gradient rms                        0.00017665
cart. step max                      0.00028467     0.01000000    T
cart. step rms                      0.00012362     0.00666667    T
 
Geometry optimization converged

Optimized geometry:
 
--------
Geometry
--------
Formula: CH3Cl2
Atoms
  Index Symbol   x (angstrom)   y (angstrom)   z (angstrom)
      1      C     0.00000000    -0.00000000     0.00000000
      2     Cl     2.36039725     0.00000000    -0.00000000
      3      H     0.00000000     0.94078658     0.54316338
      4      H     0.00000000    -0.94078658     0.54316338
      5      H     0.00000000     0.00000000    -1.08632677
      6     Cl    -2.36039725     0.00000000    -0.00000000
 
Total System Charge            -1.00000
Bonding info available!
 
Performing a single point calculation on the final geometry ...

 *** adf ***



 ===========================
 A T T A C H E D   F I L E S
 ===========================
  
 Restart/tmp/amstmp_ams_kid0.1517504222/GO1_GOStep6.rkf*** GO1_GOStep6 ***



 ===============================
 M O D E L   P A R A M E T E R S
 ===============================
  
 DENSITY FUNCTIONAL POTENTIAL (scf)
    LDA:                               VWN                                      
    Gradient Corrections:              ---                                      

 SPIN  (restricted / unrestr.)
    Molecule:                          Restricted                               
    Fragments:                         Restricted                               

 OTHER ASPECTS
    Relativistic Corrections:          scalar (ZORA,MAPA)                       

    Nuclear Charge Density Model:      Point Charge Nuclei                      
    Core Treatment:                    Frozen Orbital(s)                        

    Hyperfine or Zeeman Interaction:   ---                                      



 ===============
 G E O M E T R Y  ***  3D  Molecule  ***
 ===============
  

 ATOMS
 =====                            X Y Z                    CHARGE
                                (Angstrom)             Nucl     +Core       At.Mass
                       --------------------------    ----------------       -------
    1  C               0.0000   -0.0000    0.0000      6.00      4.00       12.0000
    2  Cl              2.3604    0.0000   -0.0000     17.00      7.00       34.9689
    3  H               0.0000    0.9408    0.5432      1.00      1.00        1.0078
    4  H               0.0000   -0.9408    0.5432      1.00      1.00        1.0078
    5  H               0.0000    0.0000   -1.0863      1.00      1.00        1.0078
    6  Cl             -2.3604    0.0000   -0.0000     17.00      7.00       34.9689


 FRAGMENTS
 =========                                     Atoms in this Fragment     Cart. coord.s (Angstrom)
                                               -------------------------------------------------------
    1  C                                                 1  C            0.0000   -0.0000    0.0000
    2  Cl                                                2  Cl           2.3604    0.0000   -0.0000
    3  Cl                                                6  Cl          -2.3604    0.0000   -0.0000
[...]
 

                 Estimated peak private memory usage    100 MB per process
                                 shared memory usage     49 MB per node

              <><><><><><><><><><><><><><><><><><><><><><><><><>
 Handling            3  atoms per pass in write_denb1
 wr_gradb1   5750784.00000000        1048576000.00000     

######## LOOPING OVER NUCLEI ########

==========================
###### NUCLEUS:     1  C  
==========================

====================  solving CPKS equations  ====================

NUCLEUS  COORD.    ITERATION   ACCURACY
-------  ------    ---------   --------
    1       1          1       0.19471628D+00
    1       1          2       0.11441539D-01
    1       1          3       0.31710458D-03
    1       1          4       0.50931445D-04
    1       1          5       0.15790347D-05
*** CPKS converged.
----------------------------------------------
    1       2          1       0.17121462D-01
    1       2          2       0.92487065D-03
    1       2          3       0.82505113D-04
    1       2          4       0.40670619D-05
*** CPKS converged.
----------------------------------------------
    1       3          1       0.17126735D-01
    1       3          2       0.92210017D-03
    1       3          3       0.83378497D-04
    1       3          4       0.47345764D-04
    1       3          5       0.18816194D-05
*** CPKS converged.
----------------------------------------------

====================  end of solving CPKS equations  ====================

==========================
###### NUCLEUS:     2  Cl 
==========================

====================  solving CPKS equations  ====================

NUCLEUS  COORD.    ITERATION   ACCURACY
-------  ------    ---------   --------
    2       1          1       0.63478690D-01
    2       1          2       0.31030603D-02
    2       1          3       0.57211329D-03
    2       1          4       0.11177573D-03
    2       1          5       0.19209870D-04
    2       1          6       0.10436261D-04
    2       1          7       0.35447317D-06
*** CPKS converged.
----------------------------------------------
    2       2          1       0.69248712D-02
    2       2          2       0.21838330D-03
    2       2          3       0.12411365D-04
    2       2          4       0.46599702D-06
*** CPKS converged.
----------------------------------------------
    2       3          1       0.67959181D-02
    2       3          2       0.67440588D-03
    2       3          3       0.14107721D-03
    2       3          4       0.24787013D-04
    2       3          5       0.61238207D-05
*** CPKS converged.
----------------------------------------------

====================  end of solving CPKS equations  ====================

==========================
###### NUCLEUS:     6  Cl 
==========================

====================  solving CPKS equations  ====================

NUCLEUS  COORD.    ITERATION   ACCURACY
-------  ------    ---------   --------
    6       1          1       0.63478687D-01
    6       1          2       0.31030586D-02
    6       1          3       0.57211366D-03
    6       1          4       0.11176717D-03
    6       1          5       0.19215844D-04
    6       1          6       0.10436529D-04
    6       1          7       0.35447331D-06
*** CPKS converged.
----------------------------------------------
    6       2          1       0.69248906D-02
    6       2          2       0.21838334D-03
    6       2          3       0.12411095D-04
    6       2          4       0.43659050D-06
*** CPKS converged.
----------------------------------------------
    6       3          1       0.67959290D-02
    6       3          2       0.67440869D-03
    6       3          3       0.14107789D-03
    6       3          4       0.24785394D-04
    6       3          5       0.61243023D-05
*** CPKS converged.
----------------------------------------------

====================  end of solving CPKS equations  ====================

==========================
###### NUCLEUS:     3  H  
==========================

====================  solving CPKS equations  ====================

NUCLEUS  COORD.    ITERATION   ACCURACY
-------  ------    ---------   --------
    3       1          1       0.22863098D-01
    3       1          2       0.23647718D-02
    3       1          3       0.45522054D-03
    3       1          4       0.21454662D-04
    3       1          5       0.21436246D-05
*** CPKS converged.
----------------------------------------------
    3       2          1       0.88777622D-01
    3       2          2       0.27060257D-02
    3       2          3       0.10069522D-02
    3       2          4       0.12479496D-03
    3       2          5       0.12721782D-04
    3       2          6       0.79785119D-06
*** CPKS converged.
----------------------------------------------
    3       3          1       0.51603002D-01
    3       3          2       0.23045300D-02
    3       3          3       0.63131971D-03
    3       3          4       0.16255715D-03
    3       3          5       0.81296436D-05
*** CPKS converged.
----------------------------------------------

====================  end of solving CPKS equations  ====================

==========================
###### NUCLEUS:     4  H  
==========================

====================  solving CPKS equations  ====================

NUCLEUS  COORD.    ITERATION   ACCURACY
-------  ------    ---------   --------
    4       1          1       0.22863091D-01
    4       1          2       0.23647719D-02
    4       1          3       0.45508689D-03
    4       1          4       0.21454640D-04
    4       1          5       0.21429445D-05
*** CPKS converged.
----------------------------------------------
    4       2          1       0.88777617D-01
    4       2          2       0.27060556D-02
    4       2          3       0.10072605D-02
    4       2          4       0.12479499D-03
    4       2          5       0.12721807D-04
    4       2          6       0.79778573D-06
*** CPKS converged.
----------------------------------------------
    4       3          1       0.51603031D-01
    4       3          2       0.23041281D-02
    4       3          3       0.63149873D-03
    4       3          4       0.16255721D-03
    4       3          5       0.81294810D-05
*** CPKS converged.
----------------------------------------------

====================  end of solving CPKS equations  ====================

==========================
###### NUCLEUS:     5  H  
==========================

====================  solving CPKS equations  ====================

NUCLEUS  COORD.    ITERATION   ACCURACY
-------  ------    ---------   --------
    5       1          1       0.23238382D-01
    5       1          2       0.23848813D-02
    5       1          3       0.53759839D-03
    5       1          4       0.24873392D-04
    5       1          5       0.24622738D-05
*** CPKS converged.
----------------------------------------------
    5       2          1       0.50255214D-02
    5       2          2       0.37137118D-03
    5       2          3       0.16187303D-04
    5       2          4       0.98590879D-06
*** CPKS converged.
----------------------------------------------
    5       3          1       0.10259349D+00
    5       3          2       0.41530740D-02
    5       3          3       0.14521522D-02
    5       3          4       0.17336216D-03
    5       3          5       0.15461878D-04
    5       3          6       0.93288621D-06
*** CPKS converged.
----------------------------------------------

====================  end of solving CPKS equations  ====================


====================================================================
*** DONE CALCULATING ANALYTICAL SECOND DERIVATIVES OF THE ENERGY ***
====================================================================

 Mulliken charges used for AMS results%charges...
Scanning modes in range provided by user.
Scanning Mode: 7
 *** SCANMODE_forward_adf_ScanMode_7 ***

 Energy gradients wrt nuclear displacements
 ==========================================

     Atom      Cartesian (a.u./angstrom)
                 X         Y         Z
 ----------------------------------------
     1 C    -0.000030 -0.000000 -0.000289
     2 Cl   -0.000036  0.000000 -0.000028
     3 H    -0.000001  0.000362  0.000337
     4 H    -0.000001 -0.000362  0.000337
     5 H    -0.000000  0.000000 -0.000329
     6 Cl    0.000070 -0.000000 -0.000028
 ----------------------------------------
 Mulliken charges used for AMS results%charges...
Old/New Frequency [cm-1]:  -204.732058/ -191.690951



    =====================
     CALCULATION RESULTS
    =====================

Energy (hartree)            -0.98932600

Gradients (hartree/bohr)
  Index   Atom            d/dx            d/dy            d/dz
      1      C   -0.0000000365    0.0000000025   -0.0001527013
      2     Cl   -0.0000280615    0.0000000020   -0.0000147306
      3      H    0.0000000064    0.0001912487    0.0001781296
      4      H    0.0000000044   -0.0001912499    0.0001781217
      5      H    0.0000000051   -0.0000000010   -0.0001740872
      6     Cl    0.0000280821   -0.0000000023   -0.0000147322

 -----------------------
 Normal Mode Frequencies
 -----------------------

 Index   Frequency (cm-1)   Intensity (km/mol)
     7          -191.6910             690.4076
     8           187.1290              10.9213
     9           187.3507              10.8966
    10           220.5048               0.0004
    11           864.6491               0.0000
    12           866.3671               0.0000
    13           969.3398              32.9797
    14          1346.5098              14.5597
    15          1347.7023              14.9827
    16          3057.2916               0.0000
    17          3276.6980               6.6336
    18          3277.7784               6.7635

 Zero-point energy (Hartree):     0.0355

 ------------
 Normal Modes
 ------------

 Number of removed rigid normal modes: 6
 
 Mode:     7      Frequency (cm-1):     -191.6910     Intensity (km/mol):      690.4076
 Index  Atom      ---- Displacements (x/y/z) ----
     1     C       0.969549   0.000000  -0.000000
     2    Cl      -0.164442  -0.000000  -0.000024
     3     H      -0.045505   0.000000   0.000000
     4     H      -0.045505   0.000000  -0.000000
     5     H      -0.041847   0.000000  -0.000000
     6    Cl      -0.164442  -0.000000   0.000024
 
 Mode:     8      Frequency (cm-1):      187.1290     Intensity (km/mol):       10.9213
 Index  Atom      ---- Displacements (x/y/z) ----
     1     C       0.000000  -0.487624  -0.000014
     2    Cl      -0.000000   0.105140   0.000003
     3     H       0.000000  -0.496923  -0.000412
     4     H       0.000000  -0.496923   0.000384
     5     H       0.000000  -0.496234  -0.000014
     6    Cl       0.000000   0.105140   0.000003
 
 Mode:     9      Frequency (cm-1):      187.3507     Intensity (km/mol):       10.8966
 Index  Atom      ---- Displacements (x/y/z) ----
     1     C      -0.000000   0.000014  -0.487742
     2    Cl       0.001698  -0.000003   0.105158
     3     H       0.000000  -0.000462  -0.496319
     4     H       0.000000   0.000490  -0.496319
     5     H      -0.000001   0.000014  -0.497313
     6    Cl      -0.001698  -0.000003   0.105158
 
 Mode:    10      Frequency (cm-1):      220.5048     Intensity (km/mol):        0.0004
 Index  Atom      ---- Displacements (x/y/z) ----
     1     C      -0.000001   0.000001  -0.009378
     2    Cl      -0.706925  -0.000000   0.002016
     3     H      -0.000122  -0.006131  -0.012951
     4     H      -0.000122   0.006132  -0.012953
     5     H       0.000244  -0.000001  -0.002478
     6    Cl       0.706926  -0.000000   0.002021
 
 Mode:    11      Frequency (cm-1):      864.6491     Intensity (km/mol):        0.0000
 Index  Atom      ---- Displacements (x/y/z) ----
     1     C      -0.000000   0.000000  -0.000000
     2    Cl       0.000000   0.008122   0.000000
     3     H       0.707061  -0.000000  -0.000000
     4     H      -0.707059   0.000000   0.000000
     5     H      -0.000002   0.000000  -0.000000
     6    Cl      -0.000000  -0.008122  -0.000000
 
 Mode:    12      Frequency (cm-1):      866.3671     Intensity (km/mol):        0.0000
 Index  Atom      ---- Displacements (x/y/z) ----
     1     C      -0.000169   0.000000   0.000000
     2    Cl       0.000121   0.000000  -0.008122
     3     H      -0.410214   0.000000  -0.000000
     4     H      -0.410218  -0.000000  -0.000000
     5     H       0.814440  -0.000000  -0.000000
     6    Cl       0.000109  -0.000000   0.008122
 
 Mode:    13      Frequency (cm-1):      969.3398     Intensity (km/mol):       32.9797
 Index  Atom      ---- Displacements (x/y/z) ----
     1     C       0.015405  -0.000000   0.000000
     2    Cl       0.022301   0.000000   0.000029
     3     H      -0.575526   0.000000   0.000000
     4     H      -0.575526  -0.000000   0.000000
     5     H      -0.579921   0.000000  -0.000000
     6    Cl       0.022301   0.000000  -0.000029
 
 Mode:    14      Frequency (cm-1):     1346.5098     Intensity (km/mol):       14.5597
 Index  Atom      ---- Displacements (x/y/z) ----
     1     C      -0.000000  -0.006786   0.093292
     2    Cl      -0.000003   0.000016  -0.000218
     3     H       0.000000   0.393131  -0.614059
     4     H       0.000000  -0.372174  -0.558376
     5     H      -0.000000   0.058701   0.076725
     6    Cl       0.000003   0.000016  -0.000218
 
 Mode:    15      Frequency (cm-1):     1347.7023     Intensity (km/mol):       14.9827
 Index  Atom      ---- Displacements (x/y/z) ----
     1     C      -0.000000   0.093344   0.006788
     2    Cl      -0.000000  -0.000227  -0.000016
     3     H       0.000000  -0.116479   0.340046
     4     H      -0.000000  -0.172081  -0.425357
     5     H      -0.000000  -0.807138   0.005587
     6    Cl       0.000000  -0.000227  -0.000016
 
 Mode:    16      Frequency (cm-1):     3057.2916     Intensity (km/mol):        0.0000
 Index  Atom      ---- Displacements (x/y/z) ----
     1     C      -0.000000   0.000024  -0.000266
     2    Cl      -0.000248  -0.000000  -0.000001
     3     H       0.000000   0.500900   0.289100
     4     H       0.000000  -0.501155   0.289213
     5     H       0.000000  -0.000029  -0.575082
     6    Cl       0.000248  -0.000000  -0.000001
 
 Mode:    17      Frequency (cm-1):     3276.6980     Intensity (km/mol):        6.6336
 Index  Atom      ---- Displacements (x/y/z) ----
     1     C       0.000000  -0.101818   0.002868
     2    Cl      -0.000000   0.000277  -0.000008
     3     H       0.000000   0.594805   0.353295
     4     H      -0.000000   0.614661  -0.363879
     5     H       0.000000  -0.016358  -0.023026
     6    Cl       0.000000   0.000277  -0.000008
 
 Mode:    18      Frequency (cm-1):     3277.7784     Intensity (km/mol):        6.7635
 Index  Atom      ---- Displacements (x/y/z) ----
     1     C      -0.000000   0.002864   0.101821
     2    Cl      -0.000002  -0.000008  -0.000277
     3     H      -0.000000  -0.374047  -0.199916
     4     H      -0.000000   0.340011  -0.179711
     5     H       0.000000   0.000480  -0.813537
     6    Cl       0.000002  -0.000008  -0.000277

PES point character: Geometry corresponds to a transition state.
                     (Hint: Very small negative frequencies do not count towards being a
                     transition state, as they usually indicate noise on a very flat PES. See
                     the PESPointCharacter%NegativeFrequenciesTolerance keyword documentation.)




 ============================
 Statistical Thermal Analysis  ***  ideal gas assumed  ***
 ============================
  
 Pressure:                  1.000000 atm.
 Temperature:             298.150000 K



 Moments of Inertia [amu*bohr^2] and principal axis
 ==================================================

          12.7416       1397.8583       1397.8583
 ------------------------------------------------
          -1.0000          0.0000          0.0000
           0.0000         -1.0000          0.0000
           0.0000          0.0000          1.0000


 The rotational contribution to the molecular entropy includes
 a term, dependent on the symmetry number sigma. The results 
 reported below were computed using sigma = 6, determined from
 the point group symmetry of the input geometry (D(3H)). 
 If this is not the correct symmetry, try symmetrizing the molecule before
 running the calculation (note: linear molecules should be aligned along one
 of the Cartesian axes).
 Contributions from frequencies below 20 1/cm are not included in vibrational sums.
 Their contributions, if any, are reported separately.


     Temp                                                        Transl      Rotat     Vibrat     Total
     ----                                                        ------      -----     ------     -----

     298.15   Entropy (cal/mol-K):                               39.232     21.164      6.936     67.332
              Nuclear Internal Energy (kcal/mol):                 0.889      0.889     23.479     25.257
              Constant Volume Heat Capacity (cal/mol-K):          2.981      2.981      7.288     13.249
          (c) Constant Volume Heat Capacity (cal/mol-K):          2.981      2.981      7.125     13.086

       Summary of energy terms
                                                   hartree              eV         kcal/mol           kJ/mol
                                      --------------------     -----------       ----------      -----------
      Energy from Engine:               -0.989326004684449        -26.9209          -620.81         -2597.48
      Nuclear Internal Energy:           0.040249171848485          1.0952            25.26           105.67
  (c) Nuclear Internal Energy:           0.040144952792273          1.0924            25.19           105.40
      Internal Energy U:                -0.949076832835964        -25.8257          -595.55         -2491.80
      pV/n = RT:                         0.000944186013486          0.0257             0.59             2.48
      Enthalpy H:                       -0.948132646822479        -25.8000          -594.96         -2489.32
      -T*S:                             -0.031991504221105         -0.8705           -20.07           -83.99
  (c) -T*S:                             -0.031992162480385         -0.8706           -20.08           -84.00
      Gibbs free energy:                -0.980124151043583        -26.6705          -615.04         -2573.32
 
 
 
  (c) The properties marked with this symbol have been corrected using 'low vibrational frequency free rotor
      interpolation corrections'. For those terms all positive frequencies are used (also ones below 20 1/cm),
      but the contribution to the partition function of small vibrational frequencies is modified as described
      in the following paper:
      S. Grimme, 'Supramolecular Binding Thermodynamics by Dispersion-Corrected Density Functional Theory'
      (Chem. Eur. J. 2012, 18, 9955-9964)
      Configuration: Dampener Frequency          :   100.000 1/cm
                     Dampener Alpha              :     4.000
                     Averaging Moment of Inertia : 1.000E-44 kg m2

--------------
Atomic charges
--------------
  Index   Atom    Charge
      1      C   -0.7897
      2     Cl   -0.5805
      3      H    0.3166
      4      H    0.3166
      5      H    0.3175
      6     Cl   -0.5805


Dipole moment vector    (Debye):     0.00000229    0.00000006   -0.00150919
              magnitude (Debye):     0.00150919


Final PES point is a transition state. Transition state search successful!


AMS application finished. Exiting.
NORMAL TERMINATION
     Total cpu time:      16.57
  Total system time:       1.53
 Total elapsed time:      24.00
