

 Parallel Execution: Process Information
 ==============================================================================
 Rank   Node Name                              NodeID   MyNodeRank  NodeMaster
    0   Yumans-MacBook-Pro.local                  0          0          0
    1   Yumans-MacBook-Pro.local                  0          1         -1
    2   Yumans-MacBook-Pro.local                  0          2         -1
    3   Yumans-MacBook-Pro.local                  0          3         -1
    4   Yumans-MacBook-Pro.local                  0          4         -1
    5   Yumans-MacBook-Pro.local                  0          5         -1
    6   Yumans-MacBook-Pro.local                  0          6         -1
    7   Yumans-MacBook-Pro.local                  0          7         -1
    8   Yumans-MacBook-Pro.local                  0          8         -1
    9   Yumans-MacBook-Pro.local                  0          9         -1
 ==============================================================================


May use up to 15625MB of RAM as shared memory on node 0

 *******************************************************************************
 *                                                                             *
 *  --------------------------------                                           *
 *   Amsterdam Modeling Suite (AMS)              2022.103                      *
 *  --------------------------------                                           *
 *                                               r104886 2022-06-17            *
 *                                                                             *
 *                                                                             *
 *                              =================                              *
 *                              |               |                              *
 *                              |     A M S     |                              *
 *                              |               |                              *
 *                              =================                              *
 *                                                                             *
 *                                                                             *
 *   Online information and documentation:  https://www.scm.com/support/       *
 *   E-mail:  support@scm.com   info@scm.com                                   *
 *                                                                             *
 *   Scientific publications using AMS results must be properly referenced     *
 *   See the User Manuals (or the web site) for recommended citations          *
 *   The terms and conditions of the End User License Agreement apply to       *
 *   the use of AMS, https://www.scm.com/license-terms/                        *
 *                                                                             *
 **********************  x86_64_darwin_intel / openmpi  ************************
 
 Licensed to: Prof Visscher, Prof Bickelhaupt, Prof Fonseca Guerra / Vrije Universiteit, Theoretische Chemie / Amsterdam / NETHERLANDS 2022-12-13 09:59:29
 SCM User ID: u21794
  
 AMS 2022.103  RunTime: Jul07-2023 11:19:48  ShM Nodes: 1  Procs: 10

 AMS jobname: ams
 AMS jobid  : 668390782

 Start   directory: /Users/yumanhordijk/ADF_DATA/solvated_EDA/tmp.yumanhordijk.28258.0.noindex/
 Results directory: /Users/yumanhordijk/ADF_DATA/solvated_EDA/ethane.left.results/
 Scratch directory: /tmp/amstmp_ams_kid0.668390782/


 Communication costs MPI_COMM_WORLD:      1.937 usec per message,   0.0337 usec per 8-byte item
 Communication costs for intra-node:      2.871 usec per message,   0.0248 usec per 8-byte item

 RNG seed: -1543358293 964867470 1195581939 1245727857 -275692191 -1899158914 -1066178151 -5046364



                     *************************************************************************
                     *  ADF 2022.103  RunTime: Jul07-2023 11:19:50  ShM Nodes: 1  Procs: 10  *
                     *************************************************************************
  
 Geometry symmetrized to: Csv
 Geometry reoriented with symmetry: C(3V)
       ****************************
       * SINGLE POINT CALCULATION *
       ****************************
 
--------
Geometry
--------
Formula: CH3
Atoms
  Index Symbol   x (angstrom)   y (angstrom)   z (angstrom)
      1      H     1.02282433     0.00000000     0.08636219       region=left adf.R=1.350
      2      C     0.00000000     0.00000000    -0.29393731       region=left adf.R=1.700
      3      H    -0.51141217    -0.88579186     0.08636219       region=left adf.R=1.350
      4      H    -0.51141217     0.88579186     0.08636219       region=left adf.R=1.350
 
Total System Charge             0.00000
Bonding info available!
 
 
----------------
ADF Engine Input
----------------
 
 SpinPolarization 1
 ALLOW  FRACTIONAL
 Title left fragment
 Symmetry NOSYM
 Unrestricted Yes
 

 Title: left fragment

