

 Parallel Execution: Process Information
 ==============================================================================
 Rank   Node Name                              NodeID   MyNodeRank  NodeMaster
    0   Yumans-MacBook-Pro.local                  0          0          0
    1   Yumans-MacBook-Pro.local                  0          1         -1
    2   Yumans-MacBook-Pro.local                  0          2         -1
    3   Yumans-MacBook-Pro.local                  0          3         -1
    4   Yumans-MacBook-Pro.local                  0          4         -1
    5   Yumans-MacBook-Pro.local                  0          5         -1
    6   Yumans-MacBook-Pro.local                  0          6         -1
    7   Yumans-MacBook-Pro.local                  0          7         -1
    8   Yumans-MacBook-Pro.local                  0          8         -1
    9   Yumans-MacBook-Pro.local                  0          9         -1
 ==============================================================================


May use up to 15625MB of RAM as shared memory on node 0

 *******************************************************************************
 *                                                                             *
 *  --------------------------------                                           *
 *   Amsterdam Modeling Suite (AMS)              2022.103                      *
 *  --------------------------------                                           *
 *                                               r104886 2022-06-17            *
 *                                                                             *
 *                                                                             *
 *                              =================                              *
 *                              |               |                              *
 *                              |     A M S     |                              *
 *                              |               |                              *
 *                              =================                              *
 *                                                                             *
 *                                                                             *
 *   Online information and documentation:  https://www.scm.com/support/       *
 *   E-mail:  support@scm.com   info@scm.com                                   *
 *                                                                             *
 *   Scientific publications using AMS results must be properly referenced     *
 *   See the User Manuals (or the web site) for recommended citations          *
 *   The terms and conditions of the End User License Agreement apply to       *
 *   the use of AMS, https://www.scm.com/license-terms/                        *
 *                                                                             *
 **********************  x86_64_darwin_intel / openmpi  ************************
 
 Licensed to: Prof Visscher, Prof Bickelhaupt, Prof Fonseca Guerra / Vrije Universiteit, Theoretische Chemie / Amsterdam / NETHERLANDS 2022-12-13 09:59:29
 SCM User ID: u21794
  
 AMS 2022.103  RunTime: Jul07-2023 11:21:37  ShM Nodes: 1  Procs: 10

 AMS jobname: ams
 AMS jobid  : 1243669100

 Start   directory: /Users/yumanhordijk/ADF_DATA/solvated_EDA/tmp.yumanhordijk.28970.0.noindex/
 Results directory: /Users/yumanhordijk/ADF_DATA/solvated_EDA/ethane_gas.results/
 Scratch directory: /tmp/amstmp_ams_kid0.1243669100/


 Communication costs MPI_COMM_WORLD:      1.964 usec per message,   0.0282 usec per 8-byte item
 Communication costs for intra-node:      0.609 usec per message,   0.0448 usec per 8-byte item

 RNG seed: -1801839467 1252181205 -2095168075 -933486977 -654861599 1293554738 -778558686 -1908916205



                     *************************************************************************
                     *  ADF 2022.103  RunTime: Jul07-2023 11:21:40  ShM Nodes: 1  Procs: 10  *
                     *************************************************************************
  
       ****************************
       * SINGLE POINT CALCULATION *
       ****************************
 
--------
Geometry
--------
Formula: C2H6
Atoms
  Index Symbol   x (angstrom)   y (angstrom)   z (angstrom)
      1      C    -0.85788043    -1.96266426    -0.57345772       region=right adf.f=right
      2      C     0.42956150    -1.18980580    -0.30380813       region=left adf.f=left
      3      H     1.22574524    -1.87140043     0.00002989       region=left adf.f=left
      4      H     0.27523132    -0.45984606     0.49251988       region=left adf.f=left
      5      H     0.75048829    -0.66020857    -1.20232363       region=left adf.f=left
      6      H    -0.70355026    -2.69262399    -1.36978574       region=right adf.f=right
      7      H    -1.65406417    -1.28106962    -0.87729572       region=right adf.f=right
      8      H    -1.17880722    -2.49226149     0.32505778       region=right adf.f=right
 
Total System Charge             0.00000
Bonding info available!
 
 
----------------
ADF Engine Input
----------------
 
 SpinPolarization 0.0
 Fragments
 left left.rkf
 right right.rkf
 End
 Symmetry NOSYM
 Unrestricted Yes
 UnrestrictedFragments Yes
 

 Title: *** (NO TITLE) ***

 *** adf ***



 ===========================
 A T T A C H E D   F I L E S
 ===========================
  



 ===============================
 M O D E L   P A R A M E T E R S
 ===============================
  
 DENSITY FUNCTIONAL POTENTIAL (scf)
    LDA:                               VWN                                      
    Gradient Corrections:              ---                                      

 SPIN  (restricted / unrestr.)
    Molecule:                          UNrestricted                            == Not Default ==
    Fragments:                         UNrestricted                            == Not Default ==

 OTHER ASPECTS
    Relativistic Corrections:          scalar (ZORA,MAPA)                       

    Nuclear Charge Density Model:      Point Charge Nuclei                      
    Core Treatment:                    Frozen Orbital(s)                        

    Hyperfine or Zeeman Interaction:   ---                                      


 Fragment File(s)
 ----------------
 right:
         file : right.rkf
         jobid: 1726099123
         title: *** adf ***
 left:
         file : left.rkf
         jobid: 1477324931
         title: *** adf ***



 ===============
 G E O M E T R Y  ***  3D  Molecule  ***
 ===============
  

 ATOMS
 =====                            X Y Z                    CHARGE
                                (Angstrom)             Nucl     +Core       At.Mass
                       --------------------------    ----------------       -------
    1  C              -0.8579   -1.9627   -0.5735      6.00      4.00       12.0000
    2  C               0.4296   -1.1898   -0.3038      6.00      4.00       12.0000
    3  H               1.2257   -1.8714    0.0000      1.00      1.00        1.0078
    4  H               0.2752   -0.4598    0.4925      1.00      1.00        1.0078
    5  H               0.7505   -0.6602   -1.2023      1.00      1.00        1.0078
    6  H              -0.7036   -2.6926   -1.3698      1.00      1.00        1.0078
    7  H              -1.6541   -1.2811   -0.8773      1.00      1.00        1.0078
    8  H              -1.1788   -2.4923    0.3251      1.00      1.00        1.0078


 FRAGMENTS
 =========                                     Atoms in this Fragment     Cart. coord.s (Angstrom)
                                               -------------------------------------------------------
    1  right                                             1  C           -0.8579   -1.9627   -0.5735
                                                         6  H           -0.7036   -2.6926   -1.3698
                                                         7  H           -1.6541   -1.2811   -0.8773
                                                         8  H           -1.1788   -2.4923    0.3251
    2  left                                              3  H            1.2257   -1.8714    0.0000
                                                         4  H            0.2752   -0.4598    0.4925
                                                         5  H            0.7505   -0.6602   -1.2023
                                                         2  C            0.4296   -1.1898   -0.3038


 Interatomic Distance Matrix (Angstrom)
 --------------------------------------

   1)     0.000
   2)     1.526   0.000
   3)     2.163   1.091   0.000
   4)     2.163   1.091   1.772   0.000
   5)     2.163   1.091   1.772   1.772   0.000
   6)     1.091   2.163   2.505   3.068   2.505   0.000
   7)     1.091   2.163   3.068   2.505   2.505   1.772   0.000
   8)     1.091   2.163   2.505   2.505   3.068   1.772   1.772   0.000

 Min. Distance =    1.0912
 Max. Distance =    3.0678



 =====================================
 S Y M M E T R Y ,   E L E C T R O N S
 =====================================
  
 Symmetry: NOSYM

 Irreducible Representations, including subspecies
 -------------------------------------------------
 A


 Configuration of Valence Electrons
 ==================================
 ( determined in the SCF procedure )

 Total:   7 (Spin-A)  + 7 (Spin-B)

 Net Charge: 0 (Nuclei minus Electrons)
 Spin polar: 0 (Spin_A minus Spin_B electrons)

 Aufbau principle for MO occupations will be applied through SCF cycle no.     150
 Thereafter, the program will assign electrons to MOs that are spatially
 similar to the occupied MOs in a "reference" cycle ("KeepOrbitals").
 The reference cycle is always the PREVIOUS cycle: it will evolve with
 the SCF procedure.
1
 ***************************************************************************************************



                                      ****************************************
                                      *  B U I L D : (Fragments, Functions)  *
                                      ****************************************
  

 The individual fragments are copies of the corresponding 'Master' fragments defined on the fragment files.
 However, they may have been rotated (and translated) with respect to the Master. The local coordinate axes
 of each fragment (which define for instance the spatial orientation in the current molecule of a fragment
 P:x orbital) are not necessarily those of the molecule.
 The local frame (if different from the molecular one) is printed to enable an interpretation of the expan-
 sion of an MO in Fragment Orbitals.



                                            ***************************
                                            *  Fragment Type : right  *
                                            ***************************
  

 Fragment no.    1   (in the list of all fragments)
 -----------------
 Local Coordinate Axes:
   x=   -0.464652    0.525316    0.712841
   y=    0.268267   -0.683677    0.678689
   z=    0.843879    0.506585    0.176747
 The actual fragment is obtained from the Master by a rotation over  170.33 degrees
 around the axis :  0.512  0.390  0.765

 Check Atomic Coordinates:

                  Master (on file)          After Computed Tranformation               As specified on Input
           ----------------------------     ----------------------------     ---------------------------------
     1)     0.00000   0.00000  -1.81956     -0.85788  -1.96266  -0.57346       1  -0.85788  -1.96266  -0.57346
     2)    -1.02282   0.00000  -2.19986     -0.70355  -2.69262  -1.36979       6  -0.70355  -2.69262  -1.36979
     3)     0.51141  -0.88579  -2.19986     -1.65406  -1.28107  -0.87730       7  -1.65406  -1.28107  -0.87730
     4)     0.51141   0.88579  -2.19986     -1.17881  -2.49226   0.32506       8  -1.17881  -2.49226   0.32506



                                             **************************
                                             *  Fragment Type : left  *
                                             **************************
  

 Fragment no.    2   (in the list of all fragments)
 -----------------
 Local Coordinate Axes:
   x=    0.464652   -0.854740    0.231341
   y=    0.268267   -0.113098   -0.956683
   z=    0.843879    0.506585    0.176747
 The actual fragment is obtained from the Master by a rotation over  103.64 degrees
 around the axis : -0.753  0.315 -0.578

 Check Atomic Coordinates:

                  Master (on file)          After Computed Tranformation               As specified on Input
           ----------------------------     ----------------------------     ---------------------------------
     1)     1.02282   0.00000   0.08636      1.22575  -1.87140   0.00003       3   1.22575  -1.87140   0.00003
     2)    -0.51141  -0.88579   0.08636      0.27523  -0.45985   0.49252       4   0.27523  -0.45985   0.49252
     3)    -0.51141   0.88579   0.08636      0.75049  -0.66021  -1.20232       5   0.75049  -0.66021  -1.20232
     4)     0.00000   0.00000  -0.29394      0.42956  -1.18981  -0.30381       2   0.42956  -1.18981  -0.30381



 =======
 S F O s  ***  (Symmetrized Fragment Orbitals)  ***
 =======
  
 SFOs are linear combinations of (valence) Fragment Orbitals (FOs), such that the SFOs transform as the
 irreducible representations of the (molecular) symmetry group. Each SFO is therefore characterized by
 an irrep of the molecule and by a few (or only one) generating FOs.
 The SFOs constitute a symmetry-adapted basis for the Fock matrix. The MO eigenvector coefficients in
 this basis provide a direct interpretation of the MOs in terms of Frontier Orbital Theory.

 The SFOs are combined with auxiliary Core Functions (CFs) to ensure orthogonalization on the (frozen)
 Core Orbitals (COs). The Core-orthogonalized SFOs (CSFOs) constitute the true Fock basis.

 The FOs, and hence also the (C)SFOs are combinations of the elementary basis functions (BAS). The basis
 functions that participate in the description of the SFOs depend on the irrep. The indices of the
 involved functions are printed below for each irrep.
 (The complete list of primitive basis functions is printed in another section)

 Total nr. of (C)SFOs (summation over all irreps) :    28

 NOTE: a (C)SFO that is defined as a combination of more than one FO is usually NOT normalized.



                                       === A ===
 Nr. of SFOs :   28
 Cartesian basis functions that participate in this irrep (total number =    30) :
      1    22     2     3     4     7     5     8     6     9
     10    11    12    13    14    15    16    17    18    19
     20    21    23    24    25    28    26    29    27    30

  SPIN  SFO   (index    Fragment               GeneratinExpansion in Fragment Orbitals
       indx  incl.CFs)   Occup   Orb.Energy   FragmentType  Coeff.   Orbital     on Fragment
 -------------------------------------------------------------------------------------------
   A     1       3       1.000      -0.612 au  right         1.00      1 A               1
                             (     -16.661 eV)
   B                     1.000      -0.638 au
                             (     -17.365 eV)
   A     2       4       1.000      -0.361 au  right         1.00      2 A               1
                             (      -9.820 eV)
   B                     1.000      -0.377 au
                             (     -10.253 eV)
   A     3       5       1.000      -0.361 au  right         1.00      3 A               1
                             (      -9.817 eV)
   B                     1.000      -0.377 au
                             (     -10.249 eV)
   A     4       6        --        -0.153 au  right         1.00      4 A               1
                             (      -4.164 eV)
   B                     1.000      -0.231 au
                             (      -6.287 eV)
   A     5       7        --         0.030 au  right         1.00      5 A               1
                             (       0.814 eV)
   B                      --         0.021 au
                             (       0.582 eV)
   A     6       8        --         0.125 au  right         1.00      6 A               1
                             (       3.409 eV)
   B                      --         0.111 au
                             (       3.031 eV)
   A     7       9        --         0.125 au  right         1.00      7 A               1
                             (       3.411 eV)
   B                      --         0.111 au
                             (       3.032 eV)
   A     8      10        --         0.400 au  right         1.00      8 A               1
                             (      10.898 eV)
   B                      --         0.390 au
                             (      10.602 eV)
   A     9      11        --         0.401 au  right         1.00      9 A               1
                             (      10.900 eV)
   B                      --         0.390 au
                             (      10.603 eV)
   A    10      12        --         0.503 au  right         1.00     10 A               1
                             (      13.696 eV)
   B                      --         0.441 au
                             (      11.995 eV)
   A    11      13        --         0.653 au  right         1.00     11 A               1
                             (      17.757 eV)
   B                      --         0.642 au
                             (      17.470 eV)
   A    12      14        --         0.867 au  right         1.00     12 A               1
                             (      23.582 eV)
   B                      --         0.849 au
                             (      23.096 eV)
   A    13      15        --         0.867 au  right         1.00     13 A               1
                             (      23.583 eV)
   B                      --         0.849 au
                             (      23.097 eV)
   A    14      16        --         1.116 au  right         1.00     14 A               1
                             (      30.373 eV)
   B                      --         1.084 au
                             (      29.510 eV)
   A    15      17       1.000      -0.638 au  left          1.00      1 A               2
                             (     -17.365 eV)
   B                     1.000      -0.612 au
                             (     -16.661 eV)
   A    16      18       1.000      -0.377 au  left          1.00      2 A               2
                             (     -10.253 eV)
   B                     1.000      -0.361 au
                             (      -9.820 eV)
   A    17      19       1.000      -0.377 au  left          1.00      3 A               2
                             (     -10.249 eV)
   B                     1.000      -0.361 au
                             (      -9.817 eV)
   A    18      20       1.000      -0.231 au  left          1.00      4 A               2
                             (      -6.287 eV)
   B                      --        -0.153 au
                             (      -4.164 eV)
   A    19      21        --         0.021 au  left          1.00      5 A               2
                             (       0.582 eV)
   B                      --         0.030 au
                             (       0.814 eV)
   A    20      22        --         0.111 au  left          1.00      6 A               2
                             (       3.031 eV)
   B                      --         0.125 au
                             (       3.409 eV)
   A    21      23        --         0.111 au  left          1.00      7 A               2
                             (       3.032 eV)
   B                      --         0.125 au
                             (       3.411 eV)
   A    22      24        --         0.390 au  left          1.00      8 A               2
                             (      10.602 eV)
   B                      --         0.400 au
                             (      10.898 eV)
   A    23      25        --         0.390 au  left          1.00      9 A               2
                             (      10.603 eV)
   B                      --         0.401 au
                             (      10.900 eV)
   A    24      26        --         0.441 au  left          1.00     10 A               2
                             (      11.995 eV)
   B                      --         0.503 au
                             (      13.696 eV)
   A    25      27        --         0.642 au  left          1.00     11 A               2
                             (      17.470 eV)
   B                      --         0.653 au
                             (      17.757 eV)
   A    26      28        --         0.849 au  left          1.00     12 A               2
                             (      23.096 eV)
   B                      --         0.867 au
                             (      23.582 eV)
   A    27      29        --         0.849 au  left          1.00     13 A               2
                             (      23.097 eV)
   B                      --         0.867 au
                             (      23.583 eV)
   A    28      30        --         1.084 au  left          1.00     14 A               2
                             (      29.510 eV)
   B                      --         1.116 au
                             (      30.373 eV)



 ================================
 (Slater-type)  F U N C T I O N S  ***  (Basis and Fit)  ***
 ================================
  

 Atom Type    1  (C)
 ==============

 Valence Basis Sets:   5
 -----------------------
   1 S    5.400000
   2 S    1.240000
   2 S    1.980000
   2 P    0.960000
   2 P    2.200000

 Frozen Core Shells
 ------------------
    S:  1

 Atom Type    2  (H)
 ==============

 Valence Basis Sets:   2
 -----------------------
   1 S    0.760000
   1 S    1.280000

 Atom Type    3  (H)
 ==============

 Valence Basis Sets:   2
 -----------------------
   1 S    0.760000
   1 S    1.280000

 Atom Type    4  (C)
 ==============

 Valence Basis Sets:   5
 -----------------------
   1 S    5.400000
   2 S    1.240000
   2 S    1.980000
   2 P    0.960000
   2 P    2.200000

 Frozen Core Shells
 ------------------
    S:  1


 BAS: List of all Elementary Cartesian Basis Functions
 =====================================================

 The numbering in the list below (to the right of the function characteristics) is referred
 to in print-outs of MO eigenvectors and Mulliken populations in the BAS representation
 (as contrasted to the SFO representation).

 Notes:
 1. The functions are characterized by a polynomial prefactor (powers of x,y,z and r) and
    an exponential decay factor alpha.
 2. Since the basis sets are specific for an atom TYPE, the individual functions occur on
    all atoms of that type.
 3. The word 'Core' in the left margin signals that it is a Core Function (CF) : not a
    degree of freedom in the valence set, but only used to ensure orthogonalization of
    the other valence basis functions on the frozen Core Orbitals.


 (power of) X  Y  Z  R     Alpha  on Atom
            ==========     =====     ==========

 C                                    1
                                  ---------------------------------------------------------------------------
    Core    0  0  0  0     5.400      1
            0  0  0  1     1.240      2
            0  0  0  1     1.980      3
            1  0  0  0     0.960      4
            0  1  0  0     0.960      5
            0  0  1  0     0.960      6
            1  0  0  0     2.200      7
            0  1  0  0     2.200      8
            0  0  1  0     2.200      9

 H                                    2    3    4
                                  ---------------------------------------------------------------------------
            0  0  0  0     0.760     10   12   14
            0  0  0  0     1.280     11   13   15

 H                                    5    6    7
                                  ---------------------------------------------------------------------------
            0  0  0  0     0.760     16   18   20
            0  0  0  0     1.280     17   19   21

 C                                    8
                                  ---------------------------------------------------------------------------
    Core    0  0  0  0     5.400     22
            0  0  0  1     1.240     23
            0  0  0  1     1.980     24
            1  0  0  0     0.960     25
            0  1  0  0     0.960     26
            0  0  1  0     0.960     27
            1  0  0  0     2.200     28
            0  1  0  0     2.200     29
            0  0  1  0     2.200     30

 Total number of charge fitting functions (nprimf)       464
 Total number of Cartesian basis functions (naos)         30
 Total number of Cartesian core functions  (ncos)          2

1
 ***************************************************************************************************



                                              ***********************
                                              *  T E C H N I C A L  *
                                              ***********************
  



 =============================================================
 P A R A L L E L I Z A T I O N  and  V E C T O R I Z A T I O N
 =============================================================
  
 Nr of parallel processes:                               10
 Maximum vector length in NumInt loops:                 128



 =====================
 S C F   U P D A T E S
 =====================
  
 Max. nr. of cycles:                               300
 Convergence criterion:                              0.0000010000
   secondary criterion:                              0.0010000000

 Mix parameter (when DIIS does not apply):           0.2000000000
 Mixed ADIIS+SDIIS will be used                  
    Max number of expansion vectors:                10
    Pure ADIIS when Max([F,P]) is above              0.1000000000
    Pure SDIIS when Max([F,P]) is below              0.0010000000
 Automatic ElectronSmearing (in case of problematic SCF convergence) disabled



 =================
 P R E C I S I O N  ***  (General: NumInt, NeglectFunctionTails, ...)  ***
 =================
  

 NumInt:           Target precision:                 4.0000000000
 -------           Initial precision:                4.0000000000
                   Min. precision (optimization):    4.0000000000

 Neglect Functions:          Basis functions:        0.1000000000E-05
 ------------------          Fit functions:          0.1000000000E-05



 ===========================
 L I N E A R   S C A L I N G
 ===========================
  

 Cut-off radii density fit:                        0.1000000000E-07
 Overlap cut-off criterion AO matrix elements:     0.1000000000E-05
 Cut-offs for Coulomb potential and fitted density:0.1000000000E-07
 Cut-off criterion for Coulomb multipole terms:    0.1000000000E-07
 Progressive Convergence parameter:                 0.000000000    
1
 ***************************************************************************************************



                                            ***************************
                                            *  C O M P U T A T I O N  *
                                            ***************************
  

 Number of elements of the density matrix on this node (used, total):        49       465



 ===========================================
 Numerical Integration : Fuzzy Cells (Becke)
 ===========================================
  
 Becke grid quality: NORMAL         
  
 Lebedev angular grid order:             min:  11 max:  23
 Nr. of radial points:                   min:  46 max:  49

 Total nr. of points:      48166
 Nr. of blocks:              377
 Block length:               128
 Nr. of dummy points:         90


 Test of Precision of the Numerical Integration Grid
 ===================================================

 Integral of the Total Core Density:                   3.99997356492240
 Relative Error:                                      -6.609E-06



 ========================
 Density Fitting (zlmFit)
 ========================
  
 ZlmFit Fit Quality: NORMAL         
  
 Max L-expansion:                        min:   4 max:   5
 Nr. of radial interpolation points:     min:  36 max:  42



 =====
 S C F  ***  ScaSCF  ***
 =====
  
 Initial density matrix is calculated as sum of fragments

 CYCLE    1
 SCF Error: norm([F,P])=      0.541358442027, max([F,P])=      0.142921993211
 ***** SPIN 1 *****
 orbitals (Q,E):
 ---------------
 A :1...17           ( 1.00    -0.7002)  ( 1.00    -0.5683)  ( 1.00    -0.4065)  ( 1.00    -0.4062)
                     ( 1.00    -0.3538)  ( 1.00    -0.3131)  ( 1.00    -0.3129)  ( 0.00     0.0139)
                     ( 0.00     0.0691)  ( 0.00     0.0999)  ( 0.00     0.1000)  ( 0.00     0.1410)
                     ( 0.00     0.1411)  ( 0.00     0.1939)  ( 0.00     0.3977)  ( 0.00     0.3979)
                     ( 0.00     0.4779)
 ***** SPIN 2 *****
 orbitals (Q,E):
 ---------------
 A :1...17           ( 1.00    -0.7002)  ( 1.00    -0.5683)  ( 1.00    -0.4065)  ( 1.00    -0.4062)
                     ( 1.00    -0.3538)  ( 1.00    -0.3131)  ( 1.00    -0.3129)  ( 0.00     0.0139)
                     ( 0.00     0.0691)  ( 0.00     0.0999)  ( 0.00     0.1000)  ( 0.00     0.1410)
                     ( 0.00     0.1411)  ( 0.00     0.1939)  ( 0.00     0.3977)  ( 0.00     0.3979)
                     ( 0.00     0.4779)
  
 Spin polar: 0 (Spin_A minus Spin_B electrons)

 CYCLE    2
  SDIIS (wt  0.000): -0.0343  1.0343
 A-DIIS (wt  1.000):  0.0000  1.0000
  DIIS coefficients:  0.0000  1.0000
 SCF Error: norm([F,P])=      0.089630637435, max([F,P])=      0.018647616052
 ***** SPIN 1 *****
 orbitals (Q,E):
 ---------------
 A :1...8            ( 1.00    -0.6794)  ( 1.00    -0.5471)  ( 1.00    -0.3921)  ( 1.00    -0.3920)
                     ( 1.00    -0.3239)  ( 1.00    -0.2987)  ( 1.00    -0.2986)  ( 0.00     0.0202)
 ***** SPIN 2 *****
 orbitals (Q,E):
 ---------------
 A :1...8            ( 1.00    -0.6794)  ( 1.00    -0.5471)  ( 1.00    -0.3921)  ( 1.00    -0.3920)
                     ( 1.00    -0.3239)  ( 1.00    -0.2987)  ( 1.00    -0.2986)  ( 0.00     0.0202)
  
 Spin polar: 0 (Spin_A minus Spin_B electrons)

 CYCLE    3
  SDIIS (wt  0.000): -0.0478  0.5508  0.4970
 A-DIIS (wt  1.000):  0.0000  0.2594  0.7406
  DIIS coefficients:  0.0000  0.2594  0.7406
 SCF Error: norm([F,P])=      0.094283158149, max([F,P])=      0.013689346541
 ***** SPIN 1 *****
 orbitals (Q,E):
 ---------------
 A :1...8            ( 1.00    -0.7044)  ( 1.00    -0.5681)  ( 1.00    -0.4114)  ( 1.00    -0.4112)
                     ( 1.00    -0.3502)  ( 1.00    -0.3162)  ( 1.00    -0.3160)  ( 0.00     0.0124)
 ***** SPIN 2 *****
 orbitals (Q,E):
 ---------------
 A :1...8            ( 1.00    -0.7044)  ( 1.00    -0.5681)  ( 1.00    -0.4114)  ( 1.00    -0.4112)
                     ( 1.00    -0.3502)  ( 1.00    -0.3162)  ( 1.00    -0.3160)  ( 0.00     0.0124)
  
 Spin polar: 0 (Spin_A minus Spin_B electrons)

 CYCLE    4
  SDIIS (wt  0.885): -0.0925  0.4841  0.6084
 A-DIIS (wt  0.115):  0.0000  0.4460  0.5540
  DIIS coefficients: -0.0818  0.4797  0.6021
 SCF Error: norm([F,P])=      0.084390164814, max([F,P])=      0.012380643390
 ***** SPIN 1 *****
 orbitals (Q,E):
 ---------------
 A :1...8            ( 1.00    -0.6916)  ( 1.00    -0.5588)  ( 1.00    -0.4017)  ( 1.00    -0.4016)
                     ( 1.00    -0.3375)  ( 1.00    -0.3079)  ( 1.00    -0.3077)  ( 0.00     0.0161)
 ***** SPIN 2 *****
 orbitals (Q,E):
 ---------------
 A :1...8            ( 1.00    -0.6916)  ( 1.00    -0.5588)  ( 1.00    -0.4017)  ( 1.00    -0.4016)
                     ( 1.00    -0.3375)  ( 1.00    -0.3079)  ( 1.00    -0.3077)  ( 0.00     0.0161)
  
 Spin polar: 0 (Spin_A minus Spin_B electrons)

 CYCLE    5
  SDIIS (wt  1.000): -0.0317  0.0272  0.0747  0.9298
  DIIS coefficients: -0.0317  0.0272  0.0747  0.9298
 SCF Error: norm([F,P])=      0.002967795882, max([F,P])=      0.000548314094
 ***** SPIN 1 *****
 orbitals (Q,E):
 ---------------
 A :1...8            ( 1.00    -0.6920)  ( 1.00    -0.5586)  ( 1.00    -0.4019)  ( 1.00    -0.4018)
                     ( 1.00    -0.3377)  ( 1.00    -0.3079)  ( 1.00    -0.3077)  ( 0.00     0.0161)
 ***** SPIN 2 *****
 orbitals (Q,E):
 ---------------
 A :1...8            ( 1.00    -0.6920)  ( 1.00    -0.5586)  ( 1.00    -0.4019)  ( 1.00    -0.4018)
                     ( 1.00    -0.3377)  ( 1.00    -0.3079)  ( 1.00    -0.3077)  ( 0.00     0.0161)
  
 Spin polar: 0 (Spin_A minus Spin_B electrons)

 CYCLE    6
  SDIIS (wt  1.000):  0.0048 -0.0176 -0.0244 -0.0567  1.0937
  DIIS coefficients:  0.0048 -0.0176 -0.0244 -0.0567  1.0937
 SCF Error: norm([F,P])=      0.000309085923, max([F,P])=      0.000056164087
 ***** SPIN 1 *****
 orbitals (Q,E):
 ---------------
 A :1...8            ( 1.00    -0.6920)  ( 1.00    -0.5587)  ( 1.00    -0.4019)  ( 1.00    -0.4018)
                     ( 1.00    -0.3377)  ( 1.00    -0.3079)  ( 1.00    -0.3077)  ( 0.00     0.0161)
 ***** SPIN 2 *****
 orbitals (Q,E):
 ---------------
 A :1...8            ( 1.00    -0.6920)  ( 1.00    -0.5587)  ( 1.00    -0.4019)  ( 1.00    -0.4018)
                     ( 1.00    -0.3377)  ( 1.00    -0.3079)  ( 1.00    -0.3077)  ( 0.00     0.0161)
  
 Spin polar: 0 (Spin_A minus Spin_B electrons)

 CYCLE    7
  SDIIS (wt  1.000):  0.0004 -0.0006 -0.0014 -0.0111  0.0183  0.9944
  DIIS coefficients:  0.0004 -0.0006 -0.0014 -0.0111  0.0183  0.9944
 SCF Error: norm([F,P])=      0.000024686251, max([F,P])=      0.000004799016
 ***** SPIN 1 *****
 orbitals (Q,E):
 ---------------
 A :1...8            ( 1.00    -0.6920)  ( 1.00    -0.5586)  ( 1.00    -0.4019)  ( 1.00    -0.4018)
                     ( 1.00    -0.3377)  ( 1.00    -0.3079)  ( 1.00    -0.3077)  ( 0.00     0.0161)
 ***** SPIN 2 *****
 orbitals (Q,E):
 ---------------
 A :1...8            ( 1.00    -0.6920)  ( 1.00    -0.5586)  ( 1.00    -0.4019)  ( 1.00    -0.4018)
                     ( 1.00    -0.3377)  ( 1.00    -0.3079)  ( 1.00    -0.3077)  ( 0.00     0.0161)
  
 Spin polar: 0 (Spin_A minus Spin_B electrons)

 CYCLE    8
  SDIIS (wt  1.000):  0.0000  0.0000 -0.0000 -0.0005 -0.0017  0.0592  0.9429
  DIIS coefficients:  0.0000  0.0000 -0.0000 -0.0005 -0.0017  0.0592  0.9429
 SCF Error: norm([F,P])=      0.000002596257, max([F,P])=      0.000000520283
 ***** SPIN 1 *****
 orbitals (Q,E):
 ---------------
 A :1...8            ( 1.00    -0.6920)  ( 1.00    -0.5586)  ( 1.00    -0.4019)  ( 1.00    -0.4018)
                     ( 1.00    -0.3377)  ( 1.00    -0.3079)  ( 1.00    -0.3077)  ( 0.00     0.0161)
 ***** SPIN 2 *****
 orbitals (Q,E):
 ---------------
 A :1...8            ( 1.00    -0.6920)  ( 1.00    -0.5586)  ( 1.00    -0.4019)  ( 1.00    -0.4018)
                     ( 1.00    -0.3377)  ( 1.00    -0.3079)  ( 1.00    -0.3077)  ( 0.00     0.0161)
  
 Spin polar: 0 (Spin_A minus Spin_B electrons)

 SCF CONVERGED

 CYCLE    9
1
 ***************************************************************************************************



                                                *******************
                                                *  R E S U L T S  *
                                                *******************
  
 *** Using FIT density in Focky
  SDIIS (wt  1.000): -0.0000  0.0000  0.0001  0.0004 -0.0014 -0.0262  0.3180  0.7091
  DIIS coefficients: -0.0000  0.0000  0.0001  0.0004 -0.0014 -0.0262  0.3180  0.7091
 SCF Error: norm([F,P])=      0.000000890860, max([F,P])=      0.000000147687


                                   ***** SPIN 1 *****

 Scaled ZORA Orbital Energies, per Irrep and Spin:
 =================================================
                        Occup              E (au)              E (eV)       Diff (eV) with prev. cycle
                        -----      --------------------        ------       --------------------------
 A
               1        1.000     -0.69196241202435E+00       -18.829              -5.67E-07
               2        1.000     -0.55864298518762E+00       -15.201              -6.57E-07
               3        1.000     -0.40193738769173E+00       -10.937              -2.65E-07
               4        1.000     -0.40181940803501E+00       -10.934              -8.67E-07
               5        1.000     -0.33773443613156E+00        -9.190              -5.05E-07
               6        1.000     -0.30790185866844E+00        -8.378              -1.18E-07
               7        1.000     -0.30773648871608E+00        -8.374              -9.64E-07
               8        0.000      0.16079840821240E-01         0.438
               9        0.000      0.72957350328938E-01         1.985
              10        0.000      0.10295058428983E+00         2.801
              11        0.000      0.10300429452970E+00         2.803
              12        0.000      0.14285528586140E+00         3.887
              13        0.000      0.14287533637526E+00         3.888
              14        0.000      0.20346229517449E+00         5.536
              15        0.000      0.39887888892815E+00        10.854
              16        0.000      0.39897298087929E+00        10.857
              17        0.000      0.48797363418280E+00        13.278
  
 HOMO :        7 A                -0.30773648871608E+00
 LUMO :        8 A                 0.16079840821240E-01
  


                                   ***** SPIN 2 *****

 Scaled ZORA Orbital Energies, per Irrep and Spin:
 =================================================
                        Occup              E (au)              E (eV)       Diff (eV) with prev. cycle
                        -----      --------------------        ------       --------------------------
 A
               1        1.000     -0.69196241202454E+00       -18.829              -5.67E-07
               2        1.000     -0.55864298518778E+00       -15.201              -6.57E-07
               3        1.000     -0.40193738769272E+00       -10.937              -2.64E-07
               4        1.000     -0.40181940803435E+00       -10.934              -8.67E-07
               5        1.000     -0.33773443613168E+00        -9.190              -5.05E-07
               6        1.000     -0.30790185866962E+00        -8.378              -1.18E-07
               7        1.000     -0.30773648871515E+00        -8.374              -9.64E-07
               8        0.000      0.16079840819360E-01         0.438
               9        0.000      0.72957350328954E-01         1.985
              10        0.000      0.10295058428759E+00         2.801
              11        0.000      0.10300429453000E+00         2.803
              12        0.000      0.14285528585989E+00         3.887
              13        0.000      0.14287533637551E+00         3.888
              14        0.000      0.20346229517436E+00         5.536
              15        0.000      0.39887888892552E+00        10.854
              16        0.000      0.39897298088049E+00        10.857
              17        0.000      0.48797363418283E+00        13.278
  
 HOMO :        7 A                -0.30773648871515E+00
 LUMO :        8 A                 0.16079840819360E-01
  


 Orbital Energies, both Spins
 ========================================

 Irrep        no.  (spin)   Occup              E (au)                E (eV)
 ---------------------------------------------------------------------------
 A             1     A       1.00       -0.69196241202435E+00       -18.8293
 A             1      B      1.00       -0.69196241202454E+00       -18.8293
 A             2     A       1.00       -0.55864298518762E+00       -15.2014
 A             2      B      1.00       -0.55864298518778E+00       -15.2014
 A             3     A       1.00       -0.40193738769173E+00       -10.9373
 A             3      B      1.00       -0.40193738769272E+00       -10.9373
 A             4     A       1.00       -0.40181940803501E+00       -10.9341
 A             4      B      1.00       -0.40181940803435E+00       -10.9341
 A             5     A       1.00       -0.33773443613156E+00        -9.1902
 A             5      B      1.00       -0.33773443613168E+00        -9.1902
 A             6     A       1.00       -0.30790185866844E+00        -8.3784
 A             6      B      1.00       -0.30790185866962E+00        -8.3784
 A             7     A       1.00       -0.30773648871608E+00        -8.3739
 A             7      B      1.00       -0.30773648871515E+00        -8.3739
 A             8     A       0.00        0.16079840821240E-01         0.4376
 A             8      B      0.00        0.16079840819360E-01         0.4376
 A             9     A       0.00        0.72957350328938E-01         1.9853
 A             9      B      0.00        0.72957350328954E-01         1.9853
 A            10     A       0.00        0.10295058428983E+00         2.8014
 A            10      B      0.00        0.10295058428759E+00         2.8014
 A            11     A       0.00        0.10300429452970E+00         2.8029
 A            11      B      0.00        0.10300429453000E+00         2.8029
 A            12     A       0.00        0.14285528586140E+00         3.8873
 A            12      B      0.00        0.14285528585989E+00         3.8873
 A            13     A       0.00        0.14287533637526E+00         3.8878
 A            13      B      0.00        0.14287533637551E+00         3.8878
 A            14     A       0.00        0.20346229517449E+00         5.5365
 A            14      B      0.00        0.20346229517436E+00         5.5365
 A            15     A       0.00        0.39887888892815E+00        10.8540
 A            15      B      0.00        0.39887888892552E+00        10.8540
 A            16     A       0.00        0.39897298087929E+00        10.8566
 A            16      B      0.00        0.39897298088049E+00        10.8566
 A            17     A       0.00        0.48797363418280E+00        13.2784
 A            17      B      0.00        0.48797363418283E+00        13.2784
 A            18     A       0.00        0.63811108327837E+00        17.3639
 A            18      B      0.00        0.63811108327825E+00        17.3639
 A            19     A       0.00        0.63896259403994E+00        17.3871
 A            19      B      0.00        0.63896259403907E+00        17.3871
 A            20     A       0.00        0.63909287621676E+00        17.3906
 A            20      B      0.00        0.63909287621764E+00        17.3906
 A            21     A       0.00        0.72150091787192E+00        19.6330
 A            21      B      0.00        0.72150091787096E+00        19.6330
 A            22     A       0.00        0.86860670172849E+00        23.6360
 A            22      B      0.00        0.86860670172772E+00        23.6360
 A            23     A       0.00        0.86865507815598E+00        23.6373
 A            23      B      0.00        0.86865507815498E+00        23.6373
 A            24     A       0.00        0.90251009285481E+00        24.5585
 A            24      B      0.00        0.90251009285527E+00        24.5585
 A            25     A       0.00        0.90253800835418E+00        24.5593
 A            25      B      0.00        0.90253800835167E+00        24.5593
 A            26     A       0.00        0.93359890318865E+00        25.4045
 A            26      B      0.00        0.93359890318829E+00        25.4045
 A            27     A       0.00        0.11680277536921E+01        31.7837
 A            27      B      0.00        0.11680277536907E+01        31.7837
 A            28     A       0.00        0.18707399512597E+01        50.9054
 A            28      B      0.00        0.18707399512595E+01        50.9054
  
 Spin polar: 0 (Spin_A minus Spin_B electrons)


 Scaled ZORA Orbital Energies of the Core Orbitals:
 ==================================================

 (Note that the atoms are grouped by atomtype, see the labels, and may hence NOT be in input order)

 AtomType  Orbital  Atom                   E (au)                        E (eV)
 --------  -------  ----           --------------------        ----------------
 C           1S        1          -0.97821227681902E+01                -266.185
 C           1S        2          -0.97821227769637E+01                -266.185


 Fit test: (difference of exact and fit density, squared integrated, result summed over spins)
         Sum-of-Fragments:                             0.00044957834751
         Orthogonalized Fragments:                     0.00056508123906
         SCF:                                          0.00061954200517



 ==========================
 Electron Density at Nuclei
 ==========================
  
 The electron density is calculated at points on a small sphere around the center of a nucleus.
 The printed electron density is the average electron density on these points.
 The radius of the sphere is the printed approximate finite nuclear radius.
 Note: ZORA-4 density is used, which includes small component density

         Atom        Nuclear Radius (Angstrom)             Electron Density (a.u.)
         ----        -------------------------             -----------------------
     1)   C                 0.0000320678                              126.87624
     2)   C                 0.0000320678                              126.87624
     3)   H                 0.0000181514                                0.48423
     4)   H                 0.0000181514                                0.48394
     5)   H                 0.0000181514                                0.48414
     6)   H                 0.0000181514                                0.48394
     7)   H                 0.0000181514                                0.48423
     8)   H                 0.0000181514                                0.48414



 =======================================
 M U L L I K E N   P O P U L A T I O N S
 =======================================
  
 The survey below gives for each atom:
 a) the total charge (Z minus electrons)
 b) the net spin polarization (nr of electrons spin-A minus spin-B)
 c) for each spin the atomic electron valence density (integrated) per L-value.

 Atom              Charge    Spin density          S         P         D         F
 ----              ------    ------------       ------    ------    ------    ------
 1 C              -0.8391          0.0000   A:  0.7231    1.6964    0.0000    0.0000
                                            B:  0.7231    1.6964    0.0000    0.0000
 2 C              -0.8391         -0.0000   A:  0.7231    1.6964    0.0000    0.0000
                                            B:  0.7231    1.6964    0.0000    0.0000
 3 H               0.2793          0.0000   A:  0.3603    0.0000    0.0000    0.0000
                                            B:  0.3603    0.0000    0.0000    0.0000
 4 H               0.2800          0.0000   A:  0.3600    0.0000    0.0000    0.0000
                                            B:  0.3600    0.0000    0.0000    0.0000
 5 H               0.2797          0.0000   A:  0.3601    0.0000    0.0000    0.0000
                                            B:  0.3601    0.0000    0.0000    0.0000
 6 H               0.2800         -0.0000   A:  0.3600    0.0000    0.0000    0.0000
                                            B:  0.3600    0.0000    0.0000    0.0000
 7 H               0.2793         -0.0000   A:  0.3603    0.0000    0.0000    0.0000
                                            B:  0.3603    0.0000    0.0000    0.0000
 8 H               0.2797         -0.0000   A:  0.3601    0.0000    0.0000    0.0000
                                            B:  0.3601    0.0000    0.0000    0.0000

 Populations of individual BAS functions
 ----------------------------------------
 1 C            0.0003  0.3601  0.3627  0.2248  0.2792  0.3060  0.2931  0.2959  0.2974
         B:     0.0003  0.3601  0.3627  0.2248  0.2792  0.3060  0.2931  0.2959  0.2974
 6 H           -0.0847  0.4447
         B:    -0.0847  0.4447
 7 H           -0.0846  0.4449
         B:    -0.0846  0.4449
 8 H           -0.0848  0.4449
         B:    -0.0848  0.4449
 3 H           -0.0846  0.4449
         B:    -0.0846  0.4449
 4 H           -0.0847  0.4447
         B:    -0.0847  0.4447
 5 H           -0.0848  0.4449
         B:    -0.0848  0.4449
 2 C            0.0003  0.3601  0.3627  0.2248  0.2792  0.3060  0.2931  0.2959  0.2974
         B:     0.0003  0.3601  0.3627  0.2248  0.2792  0.3060  0.2931  0.2959  0.2974

 Gross Charges per Atom (Z minus electrons)
 ==========================================
            -0.8391   -0.8391    0.2793    0.2800    0.2797    0.2800    0.2793    0.2797
 Net Total:  0.00000000


 Atom-Atom Population Matrix (off-diagonal elements not doubled)
 ===============================================================


                                   ***** SPIN 1 *****

     1 :     1.8349
     2 :     0.1173    1.8349
     3 :    -0.0278    0.1836    0.2237
     4 :    -0.0278    0.1835   -0.0093    0.2235
     5 :    -0.0278    0.1836   -0.0093   -0.0093    0.2236
     6 :     0.1835   -0.0278   -0.0034    0.0062   -0.0034    0.2235
     7 :     0.1836   -0.0278    0.0062   -0.0034   -0.0034   -0.0093    0.2237
     8 :     0.1836   -0.0278   -0.0034   -0.0034    0.0062   -0.0093   -0.0093    0.2236

                                   ***** SPIN 2 *****

     1 :     1.8349
     2 :     0.1173    1.8349
     3 :    -0.0278    0.1836    0.2237
     4 :    -0.0278    0.1835   -0.0093    0.2235
     5 :    -0.0278    0.1836   -0.0093   -0.0093    0.2236
     6 :     0.1835   -0.0278   -0.0034    0.0062   -0.0034    0.2235
     7 :     0.1836   -0.0278    0.0062   -0.0034   -0.0034   -0.0093    0.2237
     8 :     0.1836   -0.0278   -0.0034   -0.0034    0.0062   -0.0093   -0.0093    0.2236


 Frag-Frag Population Matrix (off-diagonal elements not doubled)
 ===============================================================


                                   ***** SPIN 1 *****

     1 :     3.5516
     2 :    -0.0516    3.5516

                                   ***** SPIN 2 *****

     1 :     3.5516
     2 :    -0.0516    3.5516



 =================================================
 H I R S H F E L D   C H A R G E   A N A L Y S I S
 =================================================
  
 For each fragment: the (numerical) integral of rho(scf) * rho(fragment)/rho(sum-of-fragments)
 (nuclear charges are included, electrons are counted negative)

 The fragments and their ordering are defined in the early G E O M E T R Y output section.
 If you use single-atom fragments, this usually implies that all atoms of the same
 chemical type are grouped together. This may not be the order in which you listed them
 in the input file!

    1  right                     0.0000
    2  left                      0.0000

 Sum of these charges (accuracy NumInt/Tails) =           0.00003558



 =============================
 V O R O N O I   C H A R G E S
 =============================
  
 For each atom: the (numerical) integral of the total electronic charge density in its Voronoi cell,
 i.e. the region of space that is closer to that atom than to any other atom.
 (cf. Wigner-Seitz cells in crystals)

 Within the Voronoi cell the subintegrals over the atomic sphere and the remaining part are evaluated
 separately to give the numbers of electrons (negative charge) in these regions.
 The net total charge in the cell (including the nuclear charge) is also given.

 Values are provided for
    a) the Initial (sum-of-fragments) density
    b) the Orthogonalized-Fragments density
    c) the SCF density
    d) the Voronoi Deformation Density (VDD): the difference SCF-Initial for the complete atomic cell


  Atom                Initial                    OrthFrag                   SCF
             Sphere RestCell NetTotal   Sphere RestCell NetTotal   Sphere RestCell NetTotal      VDD
 -----       ------------------------   ------------------------   ------------------------    -----
    1 C      -2.162   -2.457    1.381   -2.171   -2.451    1.378   -2.162   -2.483    1.355   -0.026
    2 C      -2.162   -2.457    1.381   -2.171   -2.451    1.378   -2.162   -2.483    1.355   -0.026
    3 H      -0.105   -1.361   -0.466   -0.108   -1.357   -0.465   -0.105   -1.352   -0.457    0.009
    4 H      -0.105   -1.360   -0.465   -0.108   -1.355   -0.464   -0.105   -1.351   -0.456    0.008
    5 H      -0.105   -1.345   -0.450   -0.109   -1.341   -0.449   -0.106   -1.336   -0.442    0.009
    6 H      -0.105   -1.360   -0.465   -0.108   -1.356   -0.464   -0.105   -1.351   -0.456    0.009
    7 H      -0.105   -1.361   -0.466   -0.108   -1.357   -0.465   -0.105   -1.352   -0.457    0.009
    8 H      -0.105   -1.345   -0.450   -0.109   -1.341   -0.449   -0.106   -1.336   -0.442    0.009
 ---------------------------------------------------------------------------------------------------
 Total NetCharge:               0.000                      0.000                      0.000    0.000
 (accuracy NumInt/Tails)

 Remark: the 'NetTotal' Voronoi charges often do not match the Mulliken and/or Hirshfeld charges very
 well. This is caused by the fact that chemically different atoms are not treated in accordance with
 their relative sizes. (Voronoi cells are defined by boundary planes halfway between the atoms.)
 However, the CHANGES in charge, comparing 'Initial' to 'SCF' for instance, do give a fair indication
 of the flow of charge caused by the relaxation from sum-of-fragments to self-consistency.

 Warning: the absolute accuracy of the VDD charges obtained using the Fuzzy Cells (Becke) integration
 scheme is much poorer than the one obtained with an 'equivalent' Voronoi integration grid. 



 =================================================================
 M U L T I P O L E   D E R I V E D   C H A R G E   A N A L Y S I S
 =================================================================

 This charge analysis uses the atomic multipoles (obtained from the fitted density) up to some level X,
 and reconstructs these multipoles exactly (up to level X) by distributing charges over all atoms.
 This is achieved by using Lagrange multipliers and a weight function to keep the multipoles local.

 Dummy atoms can be included (by setting INCDUM in MDC-block to 1) to obtain a fractional charge.
 This is generally useful and necessary only for small symmetrical molecules, when there are not
 enough degrees of freedom to reconstruct the multipoles.

 Since the atomic multipoles are reconstructed up to level X,
 the molecular multipoles are represented also up to level X.
 The recommended level is to reconstruct up to quadrupole : -> MDC-q charges.

 See: M. Swart, P.Th. van Duijnen, J.G. Snijders, J.Comput.Chem., (2001), p. 79-88.

 ------------------------------------------------------------------------ 
 Atomic electronic multipole moments from SCF equations (a.u.) for spin A
 ------------------------------------------------------------------------ 

   atom        charge        dip-x     dip-y     dip-z      quad-xx   quad-xy   quad-xz   quad-yy   quad-yz   quad-zz
 --------------------------------------------------------------------------------------------------------------------
    1 C      0.095903    -0.012132 -0.007042 -0.002192     0.000061  0.000643  0.000484 -0.000835  0.000441  0.000774
    2 C      0.095903     0.012132  0.007042  0.002192     0.000061  0.000643  0.000484 -0.000835  0.000441  0.000774
    3 H     -0.032010    -0.011171  0.002953 -0.003481     0.029372 -0.048701  0.022508  0.018055 -0.019785 -0.047426
    4 H     -0.031924    -0.003240 -0.008719 -0.007524    -0.045535 -0.010943 -0.014860  0.014424  0.054649  0.031111
    5 H     -0.031968    -0.007149 -0.007083  0.006438    -0.041485  0.016369 -0.022719 -0.020832 -0.043731  0.062317
    6 H     -0.031924     0.003240  0.008719  0.007524    -0.045535 -0.010943 -0.014860  0.014424  0.054649  0.031111
    7 H     -0.032010     0.011171 -0.002953  0.003481     0.029372 -0.048701  0.022508  0.018055 -0.019785 -0.047426
    8 H     -0.031968     0.007149  0.007083 -0.006438    -0.041485  0.016369 -0.022719 -0.020832 -0.043731  0.062317

 ------------------------------------------------------------------------ 
 Atomic electronic multipole moments from SCF equations (a.u.) for spin B
 ------------------------------------------------------------------------ 

   atom        charge        dip-x     dip-y     dip-z      quad-xx   quad-xy   quad-xz   quad-yy   quad-yz   quad-zz
 --------------------------------------------------------------------------------------------------------------------
    1 C      0.095903    -0.012132 -0.007042 -0.002192     0.000061  0.000643  0.000484 -0.000835  0.000441  0.000774
    2 C      0.095903     0.012132  0.007042  0.002192     0.000061  0.000643  0.000484 -0.000835  0.000441  0.000774
    3 H     -0.032010    -0.011171  0.002953 -0.003481     0.029372 -0.048701  0.022508  0.018055 -0.019785 -0.047426
    4 H     -0.031924    -0.003240 -0.008719 -0.007524    -0.045535 -0.010943 -0.014860  0.014424  0.054649  0.031111
    5 H     -0.031968    -0.007149 -0.007083  0.006438    -0.041485  0.016369 -0.022719 -0.020832 -0.043731  0.062317
    6 H     -0.031924     0.003240  0.008719  0.007524    -0.045535 -0.010943 -0.014860  0.014424  0.054649  0.031111
    7 H     -0.032010     0.011171 -0.002953  0.003481     0.029372 -0.048701  0.022508  0.018055 -0.019785 -0.047426
    8 H     -0.031968     0.007149  0.007083 -0.006438    -0.041485  0.016369 -0.022719 -0.020832 -0.043731  0.062317

 ----------------------------------------------------- 
 MDC atomic charges (includes spinA + spinB electrons)
 ----------------------------------------------------- 

 The MDC-m charges are just the Monopole terms in the multipole expansion, while for the MDC-d charges
 also the Dipoles are reconstructed. The usually preferred charges are the MDC-q charges.
 These reconstruct the Monopoles, Dipoles and Quadrupoles (both atomic AND molecular).

 Given here are the atomic charges of both spins added. These should be compared
 to the values from a "normal" RESTRICTED calculation.

        Atom    Level:     MDC-m        MDC-d        MDC-q
 ---------------------------------------------------------
     1     C            0.191805     0.182377    -0.078910
     2     C            0.191805     0.182377    -0.078910
     3     H           -0.064021    -0.060868     0.019780
     4     H           -0.063848    -0.060924     0.035380
     5     H           -0.063936    -0.060585     0.023750
     6     H           -0.063848    -0.060924     0.035380
     7     H           -0.064021    -0.060868     0.019780
     8     H           -0.063936    -0.060585     0.023750

 -------------------------------- 
 MDC spin density (spinA - spinB)
 -------------------------------- 
 Reported here are the the number of Alpha-electrons minus the number of Beta-electrons
 per atom, which usually are regarded as spin densities.

        Atom    Level:     MDC-m        MDC-d        MDC-q
 ---------------------------------------------------------
     1     C            0.000000     0.000000     0.000000
     2     C           -0.000000    -0.000000    -0.000000
     3     H            0.000000     0.000000     0.000000
     4     H            0.000000     0.000000     0.000000
     5     H            0.000000     0.000000     0.000000
     6     H           -0.000000    -0.000000    -0.000000
     7     H           -0.000000    -0.000000    -0.000000
     8     H           -0.000000    -0.000000    -0.000000

 --------------------------------------------- 
 Represented total molecular multipole moments
 --------------------------------------------- 

 Given here are the Molecular multipole moments from the atomic charges, and from the Fit Density.
 Note that the atomic charges represent the latter, NOT the ones from the Exact density.

 Reported here are the Molecular multipole moments of both spins added.
 They should be compared to the values from a "normal" RESTRICTED calculation.

            Q (a.u.)             Dipole moment (Debye)                                          Quadrupole moment (a.u.)
                                 x         y         z              xx        xy        xz        yy        yz        zz
------------------------------------------------------------------------------------------------------------------------
MDC-m         0.0000       -0.0000    0.0000    0.0000         -0.1587   -0.1763   -0.0620    0.0329   -0.0360    0.1259
MDC-d        -0.0000       -0.0000    0.0000    0.0000         -0.1493   -0.1670   -0.0616    0.0303   -0.0382    0.1190
MDC-q         0.0000       -0.0000    0.0000    0.0000         -0.0825    0.1316    0.0458    0.0791    0.1445    0.0034
 
Fit.Dens.     0.0000       -0.0000    0.0000    0.0000         -0.4343   -0.3978   -0.1418    0.0849   -0.0821    0.3494



 ==========
 S**2 value  ***  see also R. Bulo et al., J.Am.Chem.Soc., 124 (2002) 13903-13910, note (29)  ***
 ==========
  
                                       exact      expectation value

 Total S2 (S squared)                  0.00000             0.00000



 =============
 Dipole Moment  ***  (Debye)  ***
 =============
  
 Vector   :        -0.00000009      0.00000029      0.00000000
 Magnitude:         0.00000030

 This molecular dipole moment is calculated with analytic integration



 =========================================
 Quadrupole Moment (Buckingham convention)  ***  (a.u.)  ***
 =========================================
  
      quad-xx        quad-xy        quad-xz        quad-yy        quad-yz        quad-zz
     -0.43778993    -0.48826940    -0.17227340     0.08941159    -0.10086993     0.34837834

 This molecular quadrupole moment is calculated with analytic integration
 Becke grid quality: Special        
  
 Lebedev angular grid order:             min:  35 max:  35
 Nr. of radial points:                   min:  92 max:  98



 ========================
 Density Fitting (zlmFit)
 ========================
  
 ZlmFit Fit Quality: VERYGOOD       
  
 Max L-expansion:                        min:   8 max:   9
 Nr. of radial interpolation points:     min: 120 max: 140



 ========================
 Density Fitting (zlmFit)
 ========================
  
 ZlmFit Fit Quality: VERYGOOD       
  
 Max L-expansion:                        min:   8 max:   9
 Nr. of radial interpolation points:     min: 120 max: 140
1



 ===========================
 B O N D I N G   E N E R G Y  ***  (decomposition)  ***
 ===========================
  
*** IMPORTANT NOTE ***

The bond energy is computed as an energy difference between molecule and
fragments. In particular when the fragments are single atoms, they are usually
computed as SPHERICALLY SYMMETRIC and SPIN-RESTRICTED. Obviously, this usually
does NOT represent the true atomic groundstate.

To obtain the 'real' bond energy, (atomic) correction terms must be applied
for the true (multiplet) fragment ground state. See ref: E.J.Baerends,
V.Branchadell, M.Sodupe, Chem.Phys.Lett.265 (1997) 481

General theoretical background on the bond energy decomposition scheme used
here (Morokuma-Ziegler) can be found in the review paper:
F.M. Bickelhaupt and E.J. Baerends,
"Kohn-Sham Density Functional Theory: Predicting and Understanding Chemistry"
In: Rev. Comput. Chem.; Lipkowitz, K. B. and Boyd, D. B., Eds.;
Wiley-VCH: New York, 2000, Vol. 15, 1-86.

Symbols used in the Bickelhaupt-Baerends (BB) paper are given below to make
the direct connection to that paper, where detailed explanations can be found
on the meaning of the various terms.


                                                   hartree              eV         kcal/mol           kJ/mol
                                      --------------------     -----------       ----------      -----------

Pauli Repulsion
  Kinetic (Delta T^0):                   0.922112686496231         25.0920           578.63          2421.01
  Delta V^Pauli Coulomb:                -0.377949625527551        -10.2845          -237.17          -992.31
  Delta V^Pauli LDA-XC:                 -0.236107088228914         -6.4248          -148.16          -619.90
                                      --------------------     -----------       ----------      -----------
  Total Pauli Repulsion:                 0.308055972739765          8.3826           193.31           808.80
 (Total Pauli Repulsion =
  Delta E^Pauli in BB paper)

Steric Interaction
  Pauli Repulsion (Delta E^Pauli):       0.308055972739765          8.3826           193.31           808.80
  Electrostatic Interaction:            -0.245413189557416         -6.6780          -154.00          -644.33
 (Electrostatic Interaction =
  Delta V_elstat in the BB paper)
                                      --------------------     -----------       ----------      -----------
  Total Steric Interaction:              0.062642783182349          1.7046            39.31           164.47
 (Total Steric Interaction =
  Delta E^0 in the BB paper)

Orbital Interactions
  A:                                    -0.274418311772695         -7.4673          -172.20          -720.49
                                      --------------------     -----------       ----------      -----------
  Total Orbital Interactions:           -0.274418311772695         -7.4673          -172.20          -720.49

Alternative Decomposition Orb.Int.
  Kinetic:                              -0.736352093481323        -20.0372          -462.07         -1933.29
  Coulomb:                               0.402243327337089         10.9456           252.41          1056.09
  XC:                                    0.059690454371538          1.6243            37.46           156.72
                                      --------------------     -----------       ----------      -----------
  Total Orbital Interactions:           -0.274418311772695         -7.4673          -172.20          -720.49

  Residu (E=Steric+OrbInt+Res):          0.000000713456007          0.0000             0.00             0.00

Total Bonding Energy:                   -0.211774815134339         -5.7627          -132.89          -556.01


Summary of Bonding Energy (energy terms are taken from the energy decomposition above)
======================================================================================

  Electrostatic Energy:                 -0.245413189557416         -6.6780          -154.00          -644.33
  Kinetic Energy:                        0.185760593014908          5.0548           116.57           487.71
  Coulomb (Steric+OrbInt) Energy:        0.024294415265546          0.6611            15.24            63.78
  XC Energy:                            -0.176416633857376         -4.8005          -110.70          -463.18
                                      --------------------     -----------       ----------      -----------
  Total Bonding Energy:                 -0.211774815134339         -5.7627          -132.89          -556.01


Correction terms (incorporated in energies above; only for test purposes):

1. Indication of fit-quality: 1st-order fit-correction used in the energy (hartree):  -0.0001590421
2. Electrostatic (Fit correction):   0.0000000000

Scaled ZORA energy correction, not included in bonding energy (hartree):           -0.0000040390
 NOTE: This scaled ZORA energy correction should only be used to compare two calculations
 in which the only difference in the calculation is the electron configuration.
 Then the difference in energy of this term should be added to the difference in energy of
 the two electron configurations.
 This term should not be used otherwise.
 In practice it is useful only for core excitation energy calculations.



 =========================================
 F R A G M E N T   E N E R G Y   T E R M S  ***  (summed over all fragments)  ***
 =========================================
  

The energy terms below are (parts of) the Total Energy of the fragments from which the molecule
 is built.

Exchange and Correlation
  Exchange LDA:                        -10.993271641469892       -299.1421         -6898.38        -28862.83
  Exchange GGA:                          0.000000000000000          0.0000             0.00             0.00
  Correlation LDA:                      -1.056376341982365        -28.7455          -662.89         -2773.52
  Correlation GGA:                       0.000000000000000          0.0000             0.00             0.00
                                      --------------------     -----------       ----------      -----------
  Total XC:                            -12.049647983452257       -327.8876         -7561.27        -31636.35
1



 =======================================================
 S F O   P O P U L A T I O N S ,   M O   A N A L Y S I S
 =======================================================
  
 A Mulliken population analysis is performed on (input-)selected MOs. All populations refer to SFOs.
 BAS populations may have been printed directly after the SCF part.



                                   ***** SPIN 1 *****



                                       === A ===


 SFO contributions (%) per orbital
 (multiplication by the orbital occupation yields the SFO Gross Populations)

 Orb.:        1      2      3      4      5      6      7      8      9     10     11
 occup:     1.00   1.00   1.00   1.00   1.00   1.00   1.00   0.00   0.00   0.00   0.00
 CF+SFO     ----   ----   ----   ----   ----   ----   ----   ----   ----   ----   ----
 ------
      3:   42.55  50.38   0.00   0.00   8.03   0.00   0.00   0.09   0.04  -0.00  -0.00
      4:    0.00   0.00   2.73  46.58   0.00   1.87  48.86   0.00   0.00   0.03   0.50
      5:    0.00   0.00  46.58   2.73   0.00  48.86   1.87   0.00  -0.00   0.49   0.03
      6:    8.55   0.61   0.00  -0.00  38.55   0.00   0.00   1.07  10.35   0.00   0.00
      7:   -0.12  -0.03   0.00  -0.00   1.12   0.00   0.00  48.57  37.05   0.00   0.00
      8:    0.00  -0.00   0.04   0.60   0.00   0.01   0.27   0.00   0.00   2.88  45.84
      9:    0.00   0.00   0.60   0.04  -0.00   0.28   0.01   0.00   0.00  45.85   2.88
     12:   -0.83  -0.71   0.00  -0.00   2.33   0.00   0.00   0.19   3.15   0.00   0.00
     17:   44.21  49.31   0.00   0.00   6.25   0.00   0.00   0.21   0.36   0.00   0.00
     18:   -0.00   0.00  45.65   3.95   0.00  45.10   5.30   0.00   0.00   0.25   0.02
     19:    0.00   0.00   3.95  45.65   0.00   5.30  45.11  -0.00   0.00   0.02   0.26
     20:    6.70   1.95   0.00  -0.00  41.30   0.00   0.00   0.97   9.80   0.00   0.00
     21:   -0.05  -0.19  -0.00  -0.00   1.12   0.00   0.00  48.51  36.42   0.00   0.00
     22:    0.00   0.00   0.32   0.03   0.00   0.55   0.06  -0.00   0.00  45.23   3.68
     23:    0.00  -0.00   0.03   0.32   0.00   0.06   0.54   0.00   0.00   3.68  45.23
     26:   -0.74  -0.92  -0.00  -0.00   1.40   0.00   0.00   0.17   4.11   0.00   0.00


 Summation over all MOs, multiplied by occupation: Total SFO Gross Populations in this Irrep
 ===========================================================================================

     0.00    0.00    1.01    1.00    1.00    0.48    0.01    0.01    0.01   -0.01   -0.01    0.01
    -0.00   -0.00   -0.00   -0.00    1.00    1.00    1.00    0.50    0.01    0.01    0.01   -0.01
    -0.01   -0.00   -0.00   -0.00   -0.00   -0.00



                                   ***** SPIN 2 *****



                                       === A ===


 SFO contributions (%) per orbital
 (multiplication by the orbital occupation yields the SFO Gross Populations)

 Orb.:        1      2      3      4      5      6      7      8      9     10     11
 occup:     1.00   1.00   1.00   1.00   1.00   1.00   1.00   0.00   0.00   0.00   0.00
 CF+SFO     ----   ----   ----   ----   ----   ----   ----   ----   ----   ----   ----
 ------
      3:   44.21  49.31   0.00   0.00   6.25   0.00   0.00   0.21   0.36  -0.00  -0.00
      4:    0.00   0.00   2.74  46.86   0.00   1.86  48.55   0.00   0.00   0.02   0.26
      5:    0.00   0.00  46.86   2.74   0.00  48.55   1.86   0.00  -0.00   0.26   0.02
      6:    6.70   1.95  -0.00  -0.00  41.30   0.00   0.00   0.97   9.80   0.00   0.00
      7:   -0.05  -0.19   0.00  -0.00   1.12   0.00   0.00  48.51  36.42   0.00   0.00
      8:    0.00  -0.00   0.02   0.33   0.00   0.02   0.59   0.00   0.00   2.89  46.02
      9:    0.00   0.00   0.33   0.02   0.00   0.59   0.02   0.00   0.00  46.02   2.89
     12:   -0.74  -0.92  -0.00  -0.00   1.40   0.00   0.00   0.16   4.11   0.00   0.00
     17:   42.55  50.39   0.00   0.00   8.02   0.00   0.00   0.09   0.04   0.00   0.00
     18:    0.00   0.00  45.38   3.93   0.00  45.39   5.34   0.00   0.00   0.49   0.04
     19:    0.00   0.00   3.93  45.38   0.00   5.34  45.40  -0.00   0.00   0.04   0.49
     20:    8.55   0.61   0.00  -0.00  38.55   0.00   0.00   1.07  10.35   0.00   0.00
     21:   -0.12  -0.03  -0.00  -0.00   1.12   0.00   0.00  48.57  37.05   0.00   0.00
     22:    0.00  -0.00   0.58   0.05   0.00   0.26   0.03  -0.00   0.00  45.06   3.67
     23:    0.00   0.00   0.05   0.59   0.00   0.03   0.26   0.00   0.00   3.67  45.06
     26:   -0.83  -0.71  -0.00  -0.00   2.33   0.00   0.00   0.19   3.15   0.00   0.00


 Summation over all MOs, multiplied by occupation: Total SFO Gross Populations in this Irrep
 ===========================================================================================

     0.00    0.00    1.00    1.00    1.00    0.50    0.01    0.01    0.01   -0.01   -0.01   -0.00
    -0.00   -0.00   -0.00   -0.00    1.01    1.00    1.00    0.48    0.01    0.01    0.01   -0.01
    -0.01    0.01   -0.00   -0.00   -0.00   -0.00



 List of all MOs, ordered by energy, with the most significant SFO gross populations
 ===================================================================================

 Each percentage contribution in the table below corres ponds to the indicated SFO.
 In general, a SFO may be a linear combination of several Fragment Orbitals on the same,
 or on symmetry-related Fragments. Only the first 'member' of such a combination is
 specified here. A full definition of all SFOs is given in an earlier part of the output.
 The numbering of the SFOs in this table does NOT include the Core Orbitals, and starts
 from one for each symmetry representation, as in the SFO definition list earlier.


                                       *** SPIN 1 ***


       E(eV)  Occ       MO           %     SFO (first member)   E(eV)  Occ   Fragment
 -------------------------------------------------------------------------------------

     -18.829  1.00     1 A         44.21%     1 A             -17.365  1.00     2 left
                                   42.55%     1 A             -16.661  1.00     1 right
                                    8.55%     4 A              -4.164  0.00     1 right
                                    6.70%     4 A              -6.287  1.00     2 left
     -15.201  1.00     2 A         50.38%     1 A             -16.661  1.00     1 right
                                   49.31%     1 A             -17.365  1.00     2 left
                                    1.95%     4 A              -6.287  1.00     2 left
     -10.937  1.00     3 A         46.58%     3 A              -9.817  1.00     1 right
                                   45.65%     2 A             -10.253  1.00     2 left
                                    3.95%     3 A             -10.249  1.00     2 left
                                    2.73%     2 A              -9.820  1.00     1 right
     -10.934  1.00     4 A         46.58%     2 A              -9.820  1.00     1 right
                                   45.65%     3 A             -10.249  1.00     2 left
                                    3.95%     2 A             -10.253  1.00     2 left
                                    2.73%     3 A              -9.817  1.00     1 right
      -9.190  1.00     5 A         41.30%     4 A              -6.287  1.00     2 left
                                   38.55%     4 A              -4.164  0.00     1 right
                                    8.03%     1 A             -16.661  1.00     1 right
                                    6.25%     1 A             -17.365  1.00     2 left
                                    2.33%    10 A              13.696  0.00     1 right
                                    1.40%    10 A              11.995  0.00     2 left
                                    1.12%     5 A               0.814  0.00     1 right
                                    1.12%     5 A               0.582  0.00     2 left
      -8.378  1.00     6 A         48.86%     3 A              -9.817  1.00     1 right
                                   45.10%     2 A             -10.253  1.00     2 left
                                    5.30%     3 A             -10.249  1.00     2 left
                                    1.87%     2 A              -9.820  1.00     1 right
      -8.374  1.00     7 A         48.86%     2 A              -9.820  1.00     1 right
                                   45.11%     3 A             -10.249  1.00     2 left
                                    5.30%     2 A             -10.253  1.00     2 left
                                    1.87%     3 A              -9.817  1.00     1 right
       0.438  0.00     8 A         48.57%     5 A               0.814  0.00     1 right
                                   48.51%     5 A               0.582  0.00     2 left
                                    1.07%     4 A              -4.164  0.00     1 right
       1.985  0.00     9 A         37.05%     5 A               0.814  0.00     1 right
                                   36.42%     5 A               0.582  0.00     2 left
                                   10.35%     4 A              -4.164  0.00     1 right
                                    9.80%     4 A              -6.287  1.00     2 left
                                    4.11%    10 A              11.995  0.00     2 left
                                    3.15%    10 A              13.696  0.00     1 right
       2.801  0.00    10 A         45.85%     7 A               3.411  0.00     1 right
                                   45.23%     6 A               3.031  0.00     2 left
                                    3.68%     7 A               3.032  0.00     2 left
                                    2.88%     6 A               3.409  0.00     1 right
       2.803  0.00    11 A         45.84%     6 A               3.409  0.00     1 right
                                   45.23%     7 A               3.032  0.00     2 left
                                    3.68%     6 A               3.031  0.00     2 left
                                    2.88%     7 A               3.411  0.00     1 right
       3.887  0.00    12 A         47.12%     6 A               3.031  0.00     2 left
                                   44.14%     7 A               3.411  0.00     1 right
                                    5.19%     6 A               3.409  0.00     1 right
                                    1.81%     7 A               3.032  0.00     2 left
       3.888  0.00    13 A         47.12%     7 A               3.032  0.00     2 left
                                   44.14%     6 A               3.409  0.00     1 right
                                    5.19%     7 A               3.411  0.00     1 right
                                    1.81%     6 A               3.031  0.00     2 left
       5.536  0.00    14 A         53.90%     4 A              -4.164  0.00     1 right
                                   53.31%     4 A              -6.287  1.00     2 left
                                   12.86%     5 A               0.582  0.00     2 left
                                  -12.29%    10 A              11.995  0.00     2 left
                                   12.21%     5 A               0.814  0.00     1 right
                                   -9.28%    10 A              13.696  0.00     1 right
                                   -6.17%    14 A              30.373  0.00     1 right
                                   -5.74%    14 A              29.510  0.00     2 left
                                    5.07%     1 A             -17.365  1.00     2 left
                                   -4.21%    11 A              17.757  0.00     1 right
                                    3.44%     1 A             -16.661  1.00     1 right
                                   -3.16%    11 A              17.470  0.00     2 left


                                       *** SPIN 2 ***


       E(eV)  Occ       MO           %     SFO (first member)   E(eV)  Occ   Fragment
 -------------------------------------------------------------------------------------

     -18.829  1.00     1 A         44.21%     1 A             -17.365  1.00     1 right
                                   42.55%     1 A             -16.661  1.00     2 left
                                    8.55%     4 A              -4.164  0.00     2 left
                                    6.70%     4 A              -6.287  1.00     1 right
     -15.201  1.00     2 A         50.39%     1 A             -16.661  1.00     2 left
                                   49.31%     1 A             -17.365  1.00     1 right
                                    1.95%     4 A              -6.287  1.00     1 right
     -10.937  1.00     3 A         46.86%     3 A             -10.249  1.00     1 right
                                   45.38%     2 A              -9.820  1.00     2 left
                                    3.93%     3 A              -9.817  1.00     2 left
                                    2.74%     2 A             -10.253  1.00     1 right
     -10.934  1.00     4 A         46.86%     2 A             -10.253  1.00     1 right
                                   45.38%     3 A              -9.817  1.00     2 left
                                    3.93%     2 A              -9.820  1.00     2 left
                                    2.74%     3 A             -10.249  1.00     1 right
      -9.190  1.00     5 A         41.30%     4 A              -6.287  1.00     1 right
                                   38.55%     4 A              -4.164  0.00     2 left
                                    8.02%     1 A             -16.661  1.00     2 left
                                    6.25%     1 A             -17.365  1.00     1 right
                                    2.33%    10 A              13.696  0.00     2 left
                                    1.40%    10 A              11.995  0.00     1 right
                                    1.12%     5 A               0.814  0.00     2 left
                                    1.12%     5 A               0.582  0.00     1 right
      -8.378  1.00     6 A         48.55%     3 A             -10.249  1.00     1 right
                                   45.39%     2 A              -9.820  1.00     2 left
                                    5.34%     3 A              -9.817  1.00     2 left
                                    1.86%     2 A             -10.253  1.00     1 right
      -8.374  1.00     7 A         48.55%     2 A             -10.253  1.00     1 right
                                   45.40%     3 A              -9.817  1.00     2 left
                                    5.34%     2 A              -9.820  1.00     2 left
                                    1.86%     3 A             -10.249  1.00     1 right
       0.438  0.00     8 A         48.57%     5 A               0.814  0.00     2 left
                                   48.51%     5 A               0.582  0.00     1 right
                                    1.07%     4 A              -4.164  0.00     2 left
       1.985  0.00     9 A         37.05%     5 A               0.814  0.00     2 left
                                   36.42%     5 A               0.582  0.00     1 right
                                   10.35%     4 A              -4.164  0.00     2 left
                                    9.80%     4 A              -6.287  1.00     1 right
                                    4.11%    10 A              11.995  0.00     1 right
                                    3.15%    10 A              13.696  0.00     2 left
       2.801  0.00    10 A         46.02%     7 A               3.032  0.00     1 right
                                   45.06%     6 A               3.409  0.00     2 left
                                    3.67%     7 A               3.411  0.00     2 left
                                    2.89%     6 A               3.031  0.00     1 right
       2.803  0.00    11 A         46.02%     6 A               3.031  0.00     1 right
                                   45.06%     7 A               3.411  0.00     2 left
                                    3.67%     6 A               3.409  0.00     2 left
                                    2.89%     7 A               3.032  0.00     1 right
       3.887  0.00    12 A         47.50%     6 A               3.409  0.00     2 left
                                   43.78%     7 A               3.032  0.00     1 right
                                    5.14%     6 A               3.031  0.00     1 right
                                    1.82%     7 A               3.411  0.00     2 left
       3.888  0.00    13 A         47.50%     7 A               3.411  0.00     2 left
                                   43.78%     6 A               3.031  0.00     1 right
                                    5.14%     7 A               3.032  0.00     1 right
                                    1.82%     6 A               3.409  0.00     2 left
       5.536  0.00    14 A         53.95%     4 A              -4.164  0.00     2 left
                                   53.27%     4 A              -6.287  1.00     1 right
                                   12.87%     5 A               0.582  0.00     1 right
                                  -12.30%    10 A              11.995  0.00     1 right
                                   12.22%     5 A               0.814  0.00     2 left
                                   -9.27%    10 A              13.696  0.00     2 left
                                   -6.17%    14 A              30.373  0.00     2 left
                                   -5.74%    14 A              29.510  0.00     1 right
                                    5.08%     1 A             -17.365  1.00     1 right
                                   -4.21%    11 A              17.757  0.00     2 left
                                    3.45%     1 A             -16.661  1.00     2 left
                                   -3.16%    11 A              17.470  0.00     1 right



 =======================================================================
 Electrostatic potential at the Nuclei due to electrons and other nuclei
 =======================================================================
  
         Atom                  Potential
         ----                  ---------
     1)   C                  14.74277205
     2)   C                  14.74277204
     3)   H                   1.09296907
     4)   H                   1.09490354
     5)   H                   1.09393601
     6)   H                   1.09490357
     7)   H                   1.09296905
     8)   H                   1.09393601
 Mulliken charges used for AMS results%charges...


    =====================
     CALCULATION RESULTS
    =====================

Energy (hartree)            -0.21177482


--------------
Atomic charges
--------------
  Index   Atom    Charge
      1      C   -0.8391
      2      C   -0.8391
      3      H    0.2793
      4      H    0.2800
      5      H    0.2797
      6      H    0.2800
      7      H    0.2793
      8      H    0.2797


Dipole moment vector    (Debye):    -0.00000009    0.00000029    0.00000000
              magnitude (Debye):     0.00000030


AMS application finished. Exiting.
NORMAL TERMINATION
     Total cpu time:       7.63
  Total system time:       1.80
 Total elapsed time:      10.38
