

 Parallel Execution: Process Information
 ==============================================================================
 Rank   Node Name                              NodeID   MyNodeRank  NodeMaster
    0   yumans-mbp.home                           0          0          0
    1   yumans-mbp.home                           0          1         -1
    2   yumans-mbp.home                           0          2         -1
    3   yumans-mbp.home                           0          3         -1
    4   yumans-mbp.home                           0          4         -1
    5   yumans-mbp.home                           0          5         -1
    6   yumans-mbp.home                           0          6         -1
    7   yumans-mbp.home                           0          7         -1
    8   yumans-mbp.home                           0          8         -1
    9   yumans-mbp.home                           0          9         -1
 ==============================================================================


May use up to 15625MB of RAM as shared memory on node 0

 *******************************************************************************
 *                                                                             *
 *  --------------------------------                                           *
 *   Amsterdam Modeling Suite (AMS)              2022.103                      *
 *  --------------------------------                                           *
 *                                               r104886 2022-06-17            *
 *                                                                             *
 *                                                                             *
 *                              =================                              *
 *                              |               |                              *
 *                              |     A M S     |                              *
 *                              |               |                              *
 *                              =================                              *
 *                                                                             *
 *                                                                             *
 *   Online information and documentation:  https://www.scm.com/support/       *
 *   E-mail:  support@scm.com   info@scm.com                                   *
 *                                                                             *
 *   Scientific publications using AMS results must be properly referenced     *
 *   See the User Manuals (or the web site) for recommended citations          *
 *   The terms and conditions of the End User License Agreement apply to       *
 *   the use of AMS, https://www.scm.com/license-terms/                        *
 *                                                                             *
 **********************  x86_64_darwin_intel / openmpi  ************************
 
 Licensed to: Prof Visscher, Prof Bickelhaupt, Prof Fonseca Guerra / Vrije Universiteit, Theoretische Chemie / Amsterdam / NETHERLANDS 2022-12-13 09:59:29
 SCM User ID: u21794
  
 AMS 2022.103  RunTime: Sep02-2023 11:04:09  ShM Nodes: 1  Procs: 10

 AMS jobname: ams
 AMS jobid  : 580605988

 Start   directory: /Users/yumanhordijk/PhD/TheoCheM_stack/TCutility/test/fixtures/ethanol/tmp.yumanhordijk.88216.0.noindex/
 Results directory: /Users/yumanhordijk/PhD/TheoCheM_stack/TCutility/test/fixtures/ethanol/geometry_optimization.results/
 Scratch directory: /tmp/amstmp_ams_kid0.580605988/


 Communication costs MPI_COMM_WORLD:      1.466 usec per message,   0.0284 usec per 8-byte item
 Communication costs for intra-node:      0.781 usec per message,   0.0328 usec per 8-byte item

 RNG seed: 678648904 -1460306489 1426684128 1462953020 1549392675 -2100175035 1882154091 639865590



                     *************************************************************************
                     *  ADF 2022.103  RunTime: Sep02-2023 11:04:12  ShM Nodes: 1  Procs: 10  *
                     *************************************************************************
  
       ***************************
       *  GEOMETRY OPTIMIZATION  *
       ***************************

Optimization Method                    Quasi Newton
Optimization Coordinates               Delocalized Coordinates
Optimize lattice                       F
 
 ------------------------------------------------------
 Convergence criteria (Hartree,Angstrom)
 ------------------------------------------------------
 Maximum gradient               0.001000000000
 Maximum rms gradient           0.000666666667
 Maximum step allowed           0.010000000000
 Maximum rms step allowed       0.006666666667
 Maximum energy change allowe   0.000090000000
 Maximum stress energy allowe   0.000500000000
 
Initial model Hessian                  Automatic Hessian
 
------------------------------------
Quasi-Newton Optimizer Parameters
------------------------------------
Hessian Update Method                  BFGS
Maximum number of steps                  250
First GDIIS cycle                          0
Maximum GDIIS vectors                      0
Trust radius (bohr)                        0.200000
Trust radius varies                        T
Constraints converged at all steps         T
Use projector                              T
 
 Rigid motions settings for: old optimizer
 Atomic rotations (x,y,z):     T T T
 Atomic translations (x,y,z):  T T T
 Tolerance:                   1.000000000000000E-006
 
--------
Geometry
--------
Formula: C2H6O
Atoms
  Index Symbol   x (angstrom)   y (angstrom)   z (angstrom)
      1      C    -1.90259028    -0.85331966    -0.05216662
      2      C    -0.42732518    -0.47380267    -0.02321850
      3      O    -0.34088322     0.92659342     0.15969004
      4      H    -2.00894979    -1.92841647    -0.19228852
      5      H    -2.40246763    -0.33423914    -0.86954795
      6      H    -2.37749126    -0.56548540     0.88541574
      7      H     0.05451337    -0.77128947    -0.97034076
      8      H     0.07976429    -1.00418799     0.80088851
      9      H     0.58084402     1.20621866     0.18304223
 
Total System Charge             0.00000
Bonding info available!
 
 
----------------
ADF Engine Input
----------------
 
 Basis
 Type TZ2P
 Core None
 End
 XC
 GGA OLYP
 End
 NumericalQuality Good
 

 Title: *** (NO TITLE) ***

 Using automatic Hessian for delocalized coordinates.
 *** GO1_GOStep1 ***

 Energy gradients wrt nuclear displacements
 ==========================================

     Atom      Cartesian (a.u./angstrom)
                 X         Y         Z
 ----------------------------------------
     1 C    -0.012506 -0.004486 -0.000408
     2 C     0.000217  0.012927  0.001696
     3 O     0.003844 -0.021558 -0.002859
     4 H     0.002285  0.005976  0.000759
     5 H     0.004793 -0.001278  0.004200
     6 H     0.004644 -0.000152 -0.004509
     7 H    -0.000128  0.001940 -0.001554
     8 H    -0.000104  0.001492  0.001946
     9 H    -0.003045  0.005140  0.000729
 ----------------------------------------
 Mulliken charges used for AMS results%charges...
 
----------------------------------------------------------------------
Geometry Convergence after Step   1       (Hartree/Angstrom,Angstrom)
----------------------------------------------------------------------
current energy                               -1.66856782 Hartree
energy change                      -1.66856782     0.00009000    F
constrained gradient max            0.02165644     0.00100000    F
constrained gradient rms            0.00611028     0.00066667    F
gradient max                        0.02165644
gradient rms                        0.00611028
cart. step max                      0.01654851     0.01000000    F
cart. step rms                      0.00676955     0.00666667    F
 
 
--------
Geometry
--------
Formula: C2H6O
Atoms
  Index Symbol   x (angstrom)   y (angstrom)   z (angstrom)
      1      C    -1.90252198    -0.85295649    -0.05213391
      2      C    -0.42983967    -0.46549860    -0.02203660
      3      O    -0.33365156     0.94314193     0.16166610
      4      H    -2.00346411    -1.93208264    -0.19300856
      5      H    -2.41361278    -0.34187527    -0.87200703
      6      H    -2.38848010    -0.57373701     0.88620424
      7      H     0.05262450    -0.76935968    -0.96629617
      8      H     0.07775978    -1.00124579     0.79773029
      9      H     0.59660023     1.19568482     0.18135582
 
Total System Charge             0.00000
Bonding info available!
 
 *** GO1_GOStep2 ***

 Energy gradients wrt nuclear displacements
 ==========================================

     Atom      Cartesian (a.u./angstrom)
                 X         Y         Z
 ----------------------------------------
     1 C    -0.006566 -0.004329 -0.000485
     2 C     0.000986  0.009027  0.001189
     3 O     0.002364 -0.008681 -0.001165
     4 H     0.000773  0.002088  0.000262
     5 H     0.002053 -0.000317  0.001471
     6 H     0.002013  0.000064 -0.001545
     7 H    -0.000037 -0.000163 -0.000494
     8 H    -0.000021 -0.000292  0.000402
     9 H    -0.001565  0.002602  0.000367
 ----------------------------------------
 Mulliken charges used for AMS results%charges...

 dE(predicted):    -0.22744E-03, dE(actual):    -0.31828E-03, Trust radius:    0.200000, all in a.u.
 
----------------------------------------------------------------------
Geometry Convergence after Step   2       (Hartree/Angstrom,Angstrom)
----------------------------------------------------------------------
current energy                               -1.66888610 Hartree
energy change                      -0.00031828     0.00009000    F
constrained gradient max            0.00894066     0.00100000    F
constrained gradient rms            0.00307685     0.00066667    F
gradient max                        0.00894066
gradient rms                        0.00307685
cart. step max                      0.01056007     0.01000000    F
cart. step rms                      0.00372275     0.00666667    T
 
 
--------
Geometry
--------
Formula: C2H6O
Atoms
  Index Symbol   x (angstrom)   y (angstrom)   z (angstrom)
      1      C    -1.90110596    -0.85044556    -0.05182301
      2      C    -0.43047964    -0.46363847    -0.02180186
      3      O    -0.33312137     0.95105581     0.16263509
      4      H    -1.99946655    -1.93215949    -0.19311243
      5      H    -2.42016657    -0.34537216    -0.87332646
      6      H    -2.39494183    -0.57750856     0.88679333
      7      H     0.05350638    -0.76670732    -0.96498825
      8      H     0.07860045    -0.99827774     0.79716160
      9      H     0.60258942     1.18512475     0.17993617
 
Total System Charge             0.00000
Bonding info available!
 
 *** GO1_GOStep3 ***

 Energy gradients wrt nuclear displacements
 ==========================================

     Atom      Cartesian (a.u./angstrom)
                 X         Y         Z
 ----------------------------------------
     1 C    -0.001412 -0.000872 -0.000095
     2 C     0.002300  0.003362  0.000410
     3 O    -0.000892 -0.001129 -0.000124
     4 H     0.000461 -0.000192 -0.000039
     5 H    -0.000220  0.000055 -0.000279
     6 H    -0.000200 -0.000036  0.000302
     7 H     0.000178 -0.000575  0.000002
     8 H     0.000185 -0.000567 -0.000174
     9 H    -0.000400 -0.000048 -0.000002
 ----------------------------------------
 Mulliken charges used for AMS results%charges...

 dE(predicted):    -0.68957E-04, dE(actual):    -0.82310E-04, Trust radius:    0.200000, all in a.u.
 
----------------------------------------------------------------------
Geometry Convergence after Step   3       (Hartree/Angstrom,Angstrom)
----------------------------------------------------------------------
current energy                               -1.66896841 Hartree
energy change                      -0.00008231     0.00009000    T
constrained gradient max            0.00327524     0.00100000    F
constrained gradient rms            0.00091362     0.00066667    F
gradient max                        0.00327524
gradient rms                        0.00091362
cart. step max                      0.00174633     0.01000000    T
cart. step rms                      0.00073059     0.00666667    T
 
 
--------
Geometry
--------
Formula: C2H6O
Atoms
  Index Symbol   x (angstrom)   y (angstrom)   z (angstrom)
      1      C    -1.90092981    -0.85071054    -0.05185967
      2      C    -0.43146887    -0.46400449    -0.02186912
      3      O    -0.33196465     0.95195713     0.16269132
      4      H    -1.99984682    -1.93257574    -0.19312358
      5      H    -2.42047011    -0.34635642    -0.87341112
      6      H    -2.39522026    -0.57842318     0.88662742
      7      H     0.05293051    -0.76525164    -0.96519933
      8      H     0.07804858    -0.99688949     0.79770468
      9      H     0.60433575     1.18432564     0.17991357
 
Total System Charge             0.00000
Bonding info available!
 
 *** GO1_GOStep4 ***

 Energy gradients wrt nuclear displacements
 ==========================================

     Atom      Cartesian (a.u./angstrom)
                 X         Y         Z
 ----------------------------------------
     1 C    -0.000436 -0.000586 -0.000069
     2 C     0.000831  0.001658  0.000200
     3 O    -0.000489 -0.000273 -0.000016
     4 H     0.000245 -0.000370 -0.000059
     5 H    -0.000185 -0.000080 -0.000233
     6 H    -0.000168 -0.000154  0.000222
     7 H     0.000146 -0.000165 -0.000011
     8 H     0.000153 -0.000172 -0.000053
     9 H    -0.000099  0.000142  0.000019
 ----------------------------------------
 Mulliken charges used for AMS results%charges...

 dE(predicted):    -0.41029E-05, dE(actual):    -0.47225E-05, Trust radius:    0.200000, all in a.u.
 
----------------------------------------------------------------------
Geometry Convergence after Step   4       (Hartree/Angstrom,Angstrom)
----------------------------------------------------------------------
current energy                               -1.66897313 Hartree
energy change                      -0.00000472     0.00009000    T
constrained gradient max            0.00157116     0.00100000    F
constrained gradient rms            0.00040226     0.00066667    T
gradient max                        0.00157116
gradient rms                        0.00040226
cart. step max                      0.00116537     0.01000000    T
cart. step rms                      0.00041104     0.00666667    T
 
 
--------
Geometry
--------
Formula: C2H6O
Atoms
  Index Symbol   x (angstrom)   y (angstrom)   z (angstrom)
      1      C    -1.90048378    -0.85062981    -0.05185416
      2      C    -0.43174083    -0.46516986    -0.02205081
      3      O    -0.33234454     0.95162935     0.16259339
      4      H    -2.00042039    -1.93234364    -0.19303941
      5      H    -2.41972192    -0.34624011    -0.87329620
      6      H    -2.39445311    -0.57820884     0.88652017
      7      H     0.05281579    -0.76482898    -0.96560781
      8      H     0.07797649    -0.99654836     0.79814799
      9      H     0.60378660     1.18441151     0.18006101
 
Total System Charge             0.00000
Bonding info available!
 
 *** GO1_GOStep5 ***

 Energy gradients wrt nuclear displacements
 ==========================================

     Atom      Cartesian (a.u./angstrom)
                 X         Y         Z
 ----------------------------------------
     1 C     0.000130 -0.000088 -0.000012
     2 C     0.000051  0.000180  0.000017
     3 O    -0.000254  0.000108  0.000030
     4 H     0.000243 -0.000249 -0.000042
     5 H    -0.000055 -0.000220 -0.000071
     6 H    -0.000044 -0.000246  0.000025
     7 H     0.000072  0.000154 -0.000031
     8 H     0.000081  0.000130  0.000050
     9 H    -0.000224  0.000230  0.000034
 ----------------------------------------
 Mulliken charges used for AMS results%charges...

 dE(predicted):    -0.14285E-05, dE(actual):    -0.16053E-05, Trust radius:    0.200000, all in a.u.
 
---------------------------------------------------------
Geometry Convergence after Step   5       ** CONVERGED **
---------------------------------------------------------
current energy                               -1.66897473 Hartree
energy change                      -0.00000161     0.00009000    T
constrained gradient max            0.00009253     0.00100000    T
constrained gradient rms            0.00004042     0.00066667    T
gradient max                        0.00009253
gradient rms                        0.00004042
cart. step max                      0.00025423     0.01000000    T
cart. step rms                      0.00011684     0.00666667    T
 
Geometry optimization converged

Optimized geometry:
 
--------
Geometry
--------
Formula: C2H6O
Atoms
  Index Symbol   x (angstrom)   y (angstrom)   z (angstrom)
      1      C    -1.90048378    -0.85062981    -0.05185416
      2      C    -0.43174083    -0.46516986    -0.02205081
      3      O    -0.33234454     0.95162935     0.16259339
      4      H    -2.00042039    -1.93234364    -0.19303941
      5      H    -2.41972192    -0.34624011    -0.87329620
      6      H    -2.39445311    -0.57820884     0.88652017
      7      H     0.05281579    -0.76482898    -0.96560781
      8      H     0.07797649    -0.99654836     0.79814799
      9      H     0.60378660     1.18441151     0.18006101
 
Total System Charge             0.00000
Bonding info available!
 
Performing a single point calculation on the final geometry ...

 *** adf ***



 ===========================
 A T T A C H E D   F I L E S
 ===========================
  
 Restart/tmp/amstmp_ams_kid0.580605988/GO1_GOStep5.rkf*** GO1_GOStep5 ***



 ===============================
 M O D E L   P A R A M E T E R S
 ===============================
  
 DENSITY FUNCTIONAL POTENTIAL (scf)
    LDA:                               Exchange only                           == Not Default ==
    Gradient Corrections:              OPTX LYP                                == Not Default ==

 SPIN  (restricted / unrestr.)
    Molecule:                          Restricted                               
    Fragments:                         Restricted                               

 OTHER ASPECTS
    Relativistic Corrections:          scalar (ZORA,MAPA)                       

    Nuclear Charge Density Model:      Point Charge Nuclei                      
    Core Treatment:                    Frozen Orbital(s)                        

    Hyperfine or Zeeman Interaction:   ---                                      



 ===============
 G E O M E T R Y  ***  3D  Molecule  ***
 ===============
  

 ATOMS
 =====                            X Y Z                    CHARGE
                                (Angstrom)             Nucl     +Core       At.Mass
                       --------------------------    ----------------       -------
    1  C              -1.9005   -0.8506   -0.0519      6.00      6.00       12.0000
    2  C              -0.4317   -0.4652   -0.0221      6.00      6.00       12.0000
    3  O              -0.3323    0.9516    0.1626      8.00      8.00       15.9949
    4  H              -2.0004   -1.9323   -0.1930      1.00      1.00        1.0078
    5  H              -2.4197   -0.3462   -0.8733      1.00      1.00        1.0078
    6  H              -2.3945   -0.5782    0.8865      1.00      1.00        1.0078
    7  H               0.0528   -0.7648   -0.9656      1.00      1.00        1.0078
    8  H               0.0780   -0.9965    0.7981      1.00      1.00        1.0078
    9  H               0.6038    1.1844    0.1801      1.00      1.00        1.0078


 FRAGMENTS
 =========                                     Atoms in this Fragment     Cart. coord.s (Angstrom)
                                               -------------------------------------------------------
    1  C                                                 1  C           -1.9005   -0.8506   -0.0519
    2  C                                                 2  C           -0.4317   -0.4652   -0.0221
    3  O                                                 3  O           -0.3323    0.9516    0.1626
    4  H                                                 4  H           -2.0004   -1.9323   -0.1930
    5  H                                                 5  H           -2.4197   -0.3462   -0.8733
    6  H                                                 6  H           -2.3945   -0.5782    0.8865
    7  H                                                 7  H            0.0528   -0.7648   -0.9656
    8  H                                                 8  H            0.0780   -0.9965    0.7981
    9  H                                                 9  H            0.6038    1.1844    0.1801


 Interatomic Distance Matrix (Angstrom)
 --------------------------------------

   1)     0.000
   2)     1.519   0.000
   3)     2.399   1.432   0.000
   4)     1.095   2.155   3.351   0.000
   5)     1.095   2.166   2.667   1.776   0.000
   6)     1.095   2.166   2.668   1.776   1.775   0.000
   7)     2.158   1.102   2.090   2.485   2.509   3.075   0.000
   8)     2.158   1.102   2.090   2.486   3.075   2.509   1.779   0.000
   9)     3.235   1.958   0.965   4.079   3.549   3.549   2.327   2.327   0.000

 Min. Distance =    0.9648
 Max. Distance =    4.0786



 =====================================
 S Y M M E T R Y ,   E L E C T R O N S
 =====================================
  
 Symmetry: NOSYM

 Irreducible Representations, including subspecies
 -------------------------------------------------
 A


 Configuration of Valence Electrons
 ==================================
 ( determined in the SCF procedure )

 Total:   26

 Net Charge: 0 (Nuclei minus Electrons)

 Aufbau principle for MO occupations will be applied through SCF cycle no.     150
 Thereafter, the program will assign electrons to MOs that are spatially
 similar to the occupied MOs in a "reference" cycle ("KeepOrbitals").
 The reference cycle is always the PREVIOUS cycle: it will evolve with
 the SCF procedure.
1
 ***************************************************************************************************



                                      ****************************************
                                      *  B U I L D : (Fragments, Functions)  *
                                      ****************************************
  



 =======
 S F O s  ***  (Symmetrized Fragment Orbitals)  ***
 =======
  
 SFOs are linear combinations of (valence) Fragment Orbitals (FOs), such that the SFOs transform as the
 irreducible representations of the (molecular) symmetry group. Each SFO is therefore characterized by
 an irrep of the molecule and by a few (or only one) generating FOs.
 The SFOs constitute a symmetry-adapted basis for the Fock matrix. The MO eigenvector coefficients in
 this basis provide a direct interpretation of the MOs in terms of Frontier Orbital Theory.

 The SFOs are combined with auxiliary Core Functions (CFs) to ensure orthogonalization on the (frozen)
 Core Orbitals (COs). The Core-orthogonalized SFOs (CSFOs) constitute the true Fock basis.

 The FOs, and hence also the (C)SFOs are combinations of the elementary basis functions (BAS). The basis
 functions that participate in the description of the SFOs depend on the irrep. The indices of the
 involved functions are printed below for each irrep.
 (The complete list of primitive basis functions is printed in another section)

 Total nr. of (C)SFOs (summation over all irreps) :   144

 NOTE: a (C)SFO that is defined as a combination of more than one FO is usually NOT normalized.



                                       === A ===
 Nr. of SFOs :  144
 Cartesian basis functions that participate in this irrep (total number =   162) :
      1     2     3     4     5     6     9    12     7    10
     13     8    11    14    15    16    17    18    19    20
     21    22    23    24    25    26    27    28    29    30
     31    32    33    34    35    36    39    42    37    40
     43    38    41    44    45    46    47    48    49    50
     51    52    53    54    55    56    57    58    59    60
     61    62    63    64    65    66    69    72    67    70
     73    68    71    74    75    76    77    78    79    80
     81    82    83    84    85    86    87    88    89    90
     91    92    93    94    95    96    97    98    99   100
    101   102   103   104   105   106   107   108   109   110
    111   112   113   114   115   116   117   118   119   120
    121   122   123   124   125   126   127   128   129   130
    131   132   133   134   135   136   137   138   139   140
    141   142   143   144   145   146   147   148   149   150
    151   152   153   154   155   156   157   158   159   160
    161   162

    SFO  (index         Fragment          Generating    Expansion in Fragment Orbitals
  indx  incl.CFs)   Occup   Orb.Energy   FragmentType  Coeff.   Orbital     on Fragment
 --------------------------------------------------------------------------------------
     1       1      2.000     -10.064 au  C             1.00      1 S               1
                        (    -273.865 eV)
     2       2      2.000      -0.507 au  C             1.00      2 S               1
                        (     -13.802 eV)
     3       3       --         0.384 au  C             1.00      3 S               1
                        (      10.456 eV)
     4       4       --         5.458 au  C             1.00      4 S               1
                        (     148.511 eV)
     5       5       --        49.970 au  C             1.00      5 S               1
                        (    1359.766 eV)
     6       6      0.667      -0.189 au  C             1.00      1 P:x             1
                        (      -5.135 eV)
     7       7       --         0.168 au  C             1.00      2 P:x             1
                        (       4.559 eV)
     8       8       --         2.056 au  C             1.00      3 P:x             1
                        (      55.959 eV)
     9       9      0.667      -0.189 au  C             1.00      1 P:y             1
                        (      -5.135 eV)
    10      10       --         0.168 au  C             1.00      2 P:y             1
                        (       4.559 eV)
    11      11       --         2.056 au  C             1.00      3 P:y             1
                        (      55.959 eV)
    12      12      0.667      -0.189 au  C             1.00      1 P:z             1
                        (      -5.135 eV)
    13      13       --         0.168 au  C             1.00      2 P:z             1
                        (       4.559 eV)
    14      14       --         2.056 au  C             1.00      3 P:z             1
                        (      55.959 eV)
    15      15       --         1.235 au  C             1.00      1 D:z2            1
                        (      33.605 eV)
    16      16       --         1.235 au  C             1.00      1 D:x2-y2         1
                        (      33.605 eV)
    17      17       --         1.235 au  C             1.00      1 D:xy            1
                        (      33.605 eV)
    18      18       --         1.235 au  C             1.00      1 D:xz            1
                        (      33.605 eV)
    19      19       --         1.235 au  C             1.00      1 D:yz            1
                        (      33.605 eV)
    20      20       --         4.005 au  C             1.00      1 F:z3            1
                        (     108.969 eV)
    21      21       --         4.005 au  C             1.00      1 F:z             1
                        (     108.969 eV)
    22      22       --         4.005 au  C             1.00      1 F:xyz           1
                        (     108.969 eV)
    23      23       --         4.005 au  C             1.00      1 F:z2x           1
                        (     108.969 eV)
    24      24       --         4.005 au  C             1.00      1 F:z2y           1
                        (     108.969 eV)
    25      25       --         4.005 au  C             1.00      1 F:x             1
                        (     108.969 eV)
    26      26       --         4.005 au  C             1.00      1 F:y             1
                        (     108.969 eV)
    27      27      2.000     -10.064 au  C             1.00      1 S               2
                        (    -273.865 eV)
    28      28      2.000      -0.507 au  C             1.00      2 S               2
                        (     -13.802 eV)
    29      29       --         0.384 au  C             1.00      3 S               2
                        (      10.456 eV)
    30      30       --         5.458 au  C             1.00      4 S               2
                        (     148.511 eV)
    31      31       --        49.970 au  C             1.00      5 S               2
                        (    1359.766 eV)
    32      32      0.667      -0.189 au  C             1.00      1 P:x             2
                        (      -5.135 eV)
    33      33       --         0.168 au  C             1.00      2 P:x             2
                        (       4.559 eV)
    34      34       --         2.056 au  C             1.00      3 P:x             2
                        (      55.959 eV)
    35      35      0.667      -0.189 au  C             1.00      1 P:y             2
                        (      -5.135 eV)
    36      36       --         0.168 au  C             1.00      2 P:y             2
                        (       4.559 eV)
    37      37       --         2.056 au  C             1.00      3 P:y             2
                        (      55.959 eV)
    38      38      0.667      -0.189 au  C             1.00      1 P:z             2
                        (      -5.135 eV)
    39      39       --         0.168 au  C             1.00      2 P:z             2
                        (       4.559 eV)
    40      40       --         2.056 au  C             1.00      3 P:z             2
                        (      55.959 eV)
    41      41       --         1.235 au  C             1.00      1 D:z2            2
                        (      33.605 eV)
    42      42       --         1.235 au  C             1.00      1 D:x2-y2         2
                        (      33.605 eV)
    43      43       --         1.235 au  C             1.00      1 D:xy            2
                        (      33.605 eV)
    44      44       --         1.235 au  C             1.00      1 D:xz            2
                        (      33.605 eV)
    45      45       --         1.235 au  C             1.00      1 D:yz            2
                        (      33.605 eV)
    46      46       --         4.005 au  C             1.00      1 F:z3            2
                        (     108.969 eV)
    47      47       --         4.005 au  C             1.00      1 F:z             2
                        (     108.969 eV)
    48      48       --         4.005 au  C             1.00      1 F:xyz           2
                        (     108.969 eV)
    49      49       --         4.005 au  C             1.00      1 F:z2x           2
                        (     108.969 eV)
    50      50       --         4.005 au  C             1.00      1 F:z2y           2
                        (     108.969 eV)
    51      51       --         4.005 au  C             1.00      1 F:x             2
                        (     108.969 eV)
    52      52       --         4.005 au  C             1.00      1 F:y             2
                        (     108.969 eV)
    53      53      2.000     -18.926 au  O             1.00      1 S               3
                        (    -515.001 eV)
    54      54      2.000      -0.887 au  O             1.00      2 S               3
                        (     -24.136 eV)
    55      55       --         0.804 au  O             1.00      3 S               3
                        (      21.890 eV)
    56      56       --        13.488 au  O             1.00      4 S               3
                        (     367.032 eV)
    57      57       --       121.767 au  O             1.00      5 S               3
                        (    3313.451 eV)
    58      58      1.333      -0.329 au  O             1.00      1 P:x             3
                        (      -8.949 eV)
    59      59       --         0.351 au  O             1.00      2 P:x             3
                        (       9.557 eV)
    60      60       --         3.863 au  O             1.00      3 P:x             3
                        (     105.120 eV)
    61      61      1.333      -0.329 au  O             1.00      1 P:y             3
                        (      -8.949 eV)
    62      62       --         0.351 au  O             1.00      2 P:y             3
                        (       9.557 eV)
    63      63       --         3.863 au  O             1.00      3 P:y             3
                        (     105.120 eV)
    64      64      1.333      -0.329 au  O             1.00      1 P:z             3
                        (      -8.949 eV)
    65      65       --         0.351 au  O             1.00      2 P:z             3
                        (       9.557 eV)
    66      66       --         3.863 au  O             1.00      3 P:z             3
                        (     105.120 eV)
    67      67       --         1.072 au  O             1.00      1 D:z2            3
                        (      29.175 eV)
    68      68       --         1.072 au  O             1.00      1 D:x2-y2         3
                        (      29.175 eV)
    69      69       --         1.072 au  O             1.00      1 D:xy            3
                        (      29.175 eV)
    70      70       --         1.072 au  O             1.00      1 D:xz            3
                        (      29.175 eV)
    71      71       --         1.072 au  O             1.00      1 D:yz            3
                        (      29.175 eV)
    72      72       --         3.353 au  O             1.00      1 F:z3            3
                        (      91.230 eV)
    73      73       --         3.353 au  O             1.00      1 F:z             3
                        (      91.230 eV)
    74      74       --         3.353 au  O             1.00      1 F:xyz           3
                        (      91.230 eV)
    75      75       --         3.353 au  O             1.00      1 F:z2x           3
                        (      91.230 eV)
    76      76       --         3.353 au  O             1.00      1 F:z2y           3
                        (      91.230 eV)
    77      77       --         3.353 au  O             1.00      1 F:x             3
                        (      91.230 eV)
    78      78       --         3.353 au  O             1.00      1 F:y             3
                        (      91.230 eV)
    79      79      1.000      -0.238 au  H             1.00      1 S               4
                        (      -6.484 eV)
    80      80       --         0.077 au  H             1.00      2 S               4
                        (       2.096 eV)
    81      81       --         1.521 au  H             1.00      3 S               4
                        (      41.380 eV)
    82      82       --         0.410 au  H             1.00      1 P:x             4
                        (      11.162 eV)
    83      83       --         0.410 au  H             1.00      1 P:y             4
                        (      11.162 eV)
    84      84       --         0.410 au  H             1.00      1 P:z             4
                        (      11.162 eV)
    85      85       --         2.567 au  H             1.00      1 D:z2            4
                        (      69.838 eV)
    86      86       --         2.567 au  H             1.00      1 D:x2-y2         4
                        (      69.838 eV)
    87      87       --         2.567 au  H             1.00      1 D:xy            4
                        (      69.838 eV)
    88      88       --         2.567 au  H             1.00      1 D:xz            4
                        (      69.838 eV)
    89      89       --         2.567 au  H             1.00      1 D:yz            4
                        (      69.838 eV)
    90      90      1.000      -0.238 au  H             1.00      1 S               5
                        (      -6.484 eV)
    91      91       --         0.077 au  H             1.00      2 S               5
                        (       2.096 eV)
    92      92       --         1.521 au  H             1.00      3 S               5
                        (      41.380 eV)
    93      93       --         0.410 au  H             1.00      1 P:x             5
                        (      11.162 eV)
    94      94       --         0.410 au  H             1.00      1 P:y             5
                        (      11.162 eV)
    95      95       --         0.410 au  H             1.00      1 P:z             5
                        (      11.162 eV)
    96      96       --         2.567 au  H             1.00      1 D:z2            5
                        (      69.838 eV)
    97      97       --         2.567 au  H             1.00      1 D:x2-y2         5
                        (      69.838 eV)
    98      98       --         2.567 au  H             1.00      1 D:xy            5
                        (      69.838 eV)
    99      99       --         2.567 au  H             1.00      1 D:xz            5
                        (      69.838 eV)
   100     100       --         2.567 au  H             1.00      1 D:yz            5
                        (      69.838 eV)
   101     101      1.000      -0.238 au  H             1.00      1 S               6
                        (      -6.484 eV)
   102     102       --         0.077 au  H             1.00      2 S               6
                        (       2.096 eV)
   103     103       --         1.521 au  H             1.00      3 S               6
                        (      41.380 eV)
   104     104       --         0.410 au  H             1.00      1 P:x             6
                        (      11.162 eV)
   105     105       --         0.410 au  H             1.00      1 P:y             6
                        (      11.162 eV)
   106     106       --         0.410 au  H             1.00      1 P:z             6
                        (      11.162 eV)
   107     107       --         2.567 au  H             1.00      1 D:z2            6
                        (      69.838 eV)
   108     108       --         2.567 au  H             1.00      1 D:x2-y2         6
                        (      69.838 eV)
   109     109       --         2.567 au  H             1.00      1 D:xy            6
                        (      69.838 eV)
   110     110       --         2.567 au  H             1.00      1 D:xz            6
                        (      69.838 eV)
   111     111       --         2.567 au  H             1.00      1 D:yz            6
                        (      69.838 eV)
   112     112      1.000      -0.238 au  H             1.00      1 S               7
                        (      -6.484 eV)
   113     113       --         0.077 au  H             1.00      2 S               7
                        (       2.096 eV)
   114     114       --         1.521 au  H             1.00      3 S               7
                        (      41.380 eV)
   115     115       --         0.410 au  H             1.00      1 P:x             7
                        (      11.162 eV)
   116     116       --         0.410 au  H             1.00      1 P:y             7
                        (      11.162 eV)
   117     117       --         0.410 au  H             1.00      1 P:z             7
                        (      11.162 eV)
   118     118       --         2.567 au  H             1.00      1 D:z2            7
                        (      69.838 eV)
   119     119       --         2.567 au  H             1.00      1 D:x2-y2         7
                        (      69.838 eV)
   120     120       --         2.567 au  H             1.00      1 D:xy            7
                        (      69.838 eV)
   121     121       --         2.567 au  H             1.00      1 D:xz            7
                        (      69.838 eV)
   122     122       --         2.567 au  H             1.00      1 D:yz            7
                        (      69.838 eV)
   123     123      1.000      -0.238 au  H             1.00      1 S               8
                        (      -6.484 eV)
   124     124       --         0.077 au  H             1.00      2 S               8
                        (       2.096 eV)
   125     125       --         1.521 au  H             1.00      3 S               8
                        (      41.380 eV)
   126     126       --         0.410 au  H             1.00      1 P:x             8
                        (      11.162 eV)
   127     127       --         0.410 au  H             1.00      1 P:y             8
                        (      11.162 eV)
   128     128       --         0.410 au  H             1.00      1 P:z             8
                        (      11.162 eV)
   129     129       --         2.567 au  H             1.00      1 D:z2            8
                        (      69.838 eV)
   130     130       --         2.567 au  H             1.00      1 D:x2-y2         8
                        (      69.838 eV)
   131     131       --         2.567 au  H             1.00      1 D:xy            8
                        (      69.838 eV)
   132     132       --         2.567 au  H             1.00      1 D:xz            8
                        (      69.838 eV)
   133     133       --         2.567 au  H             1.00      1 D:yz            8
                        (      69.838 eV)
   134     134      1.000      -0.238 au  H             1.00      1 S               9
                        (      -6.484 eV)
   135     135       --         0.077 au  H             1.00      2 S               9
                        (       2.096 eV)
   136     136       --         1.521 au  H             1.00      3 S               9
                        (      41.380 eV)
   137     137       --         0.410 au  H             1.00      1 P:x             9
                        (      11.162 eV)
   138     138       --         0.410 au  H             1.00      1 P:y             9
                        (      11.162 eV)
   139     139       --         0.410 au  H             1.00      1 P:z             9
                        (      11.162 eV)
   140     140       --         2.567 au  H             1.00      1 D:z2            9
                        (      69.838 eV)
   141     141       --         2.567 au  H             1.00      1 D:x2-y2         9
                        (      69.838 eV)
   142     142       --         2.567 au  H             1.00      1 D:xy            9
                        (      69.838 eV)
   143     143       --         2.567 au  H             1.00      1 D:xz            9
                        (      69.838 eV)
   144     144       --         2.567 au  H             1.00      1 D:yz            9
                        (      69.838 eV)



 ================================
 (Slater-type)  F U N C T I O N S  ***  (Basis and Fit)  ***
 ================================
  

 Atom Type    1  (C)
 ==============

 Valence Basis Sets:  10
 -----------------------
   1 S    7.680000
   1 S    5.000000
   2 S    1.280000
   2 S    2.100000
   2 S    4.600000
   2 P    0.820000
   2 P    1.480000
   2 P    2.940000
   3 D    2.200000
   4 F    3.300000

 Atom Type    2  (O)
 ==============

 Valence Basis Sets:  10
 -----------------------
   1 S    9.800000
   1 S    6.800000
   2 S    7.580000
   2 S    2.880000
   2 S    1.720000
   2 P    4.080000
   2 P    2.080000
   2 P    1.120000
   3 D    2.000000
   4 F    3.000000

 Atom Type    3  (H)
 ==============

 Valence Basis Sets:   5
 -----------------------
   1 S    0.690000
   1 S    0.920000
   1 S    1.580000
   2 P    1.250000
   3 D    2.500000


 BAS: List of all Elementary Cartesian Basis Functions
 =====================================================

 The numbering in the list below (to the right of the function characteristics) is referred
 to in print-outs of MO eigenvectors and Mulliken populations in the BAS representation
 (as contrasted to the SFO representation).

 Notes:
 1. The functions are characterized by a polynomial prefactor (powers of x,y,z and r) and
    an exponential decay factor alpha.
 2. Since the basis sets are specific for an atom TYPE, the individual functions occur on
    all atoms of that type.
 3. The word 'Core' in the left margin signals that it is a Core Function (CF) : not a
    degree of freedom in the valence set, but only used to ensure orthogonalization of
    the other valence basis functions on the frozen Core Orbitals.


 (power of) X  Y  Z  R     Alpha  on Atom
            ==========     =====     ==========

 C                                    1    2
                                  ---------------------------------------------------------------------------
            0  0  0  0     7.680      1   31
            0  0  0  0     5.000      2   32
            0  0  0  1     1.280      3   33
            0  0  0  1     2.100      4   34
            0  0  0  1     4.600      5   35
            1  0  0  0     0.820      6   36
            0  1  0  0     0.820      7   37
            0  0  1  0     0.820      8   38
            1  0  0  0     1.480      9   39
            0  1  0  0     1.480     10   40
            0  0  1  0     1.480     11   41
            1  0  0  0     2.940     12   42
            0  1  0  0     2.940     13   43
            0  0  1  0     2.940     14   44
            2  0  0  0     2.200     15   45
            1  1  0  0     2.200     16   46
            1  0  1  0     2.200     17   47
            0  2  0  0     2.200     18   48
            0  1  1  0     2.200     19   49
            0  0  2  0     2.200     20   50
            3  0  0  0     3.300     21   51
            2  1  0  0     3.300     22   52
            2  0  1  0     3.300     23   53
            1  2  0  0     3.300     24   54
            1  1  1  0     3.300     25   55
            1  0  2  0     3.300     26   56
            0  3  0  0     3.300     27   57
            0  2  1  0     3.300     28   58
            0  1  2  0     3.300     29   59
            0  0  3  0     3.300     30   60

 O                                    3
                                  ---------------------------------------------------------------------------
            0  0  0  0     9.800     61
            0  0  0  0     6.800     62
            0  0  0  1     7.580     63
            0  0  0  1     2.880     64
            0  0  0  1     1.720     65
            1  0  0  0     4.080     66
            0  1  0  0     4.080     67
            0  0  1  0     4.080     68
            1  0  0  0     2.080     69
            0  1  0  0     2.080     70
            0  0  1  0     2.080     71
            1  0  0  0     1.120     72
            0  1  0  0     1.120     73
            0  0  1  0     1.120     74
            2  0  0  0     2.000     75
            1  1  0  0     2.000     76
            1  0  1  0     2.000     77
            0  2  0  0     2.000     78
            0  1  1  0     2.000     79
            0  0  2  0     2.000     80
            3  0  0  0     3.000     81
            2  1  0  0     3.000     82
            2  0  1  0     3.000     83
            1  2  0  0     3.000     84
            1  1  1  0     3.000     85
            1  0  2  0     3.000     86
            0  3  0  0     3.000     87
            0  2  1  0     3.000     88
            0  1  2  0     3.000     89
            0  0  3  0     3.000     90

 H                                    4    5    6    7    8    9
                                  ---------------------------------------------------------------------------
            0  0  0  0     0.690     91  103  115  127  139  151
            0  0  0  0     0.920     92  104  116  128  140  152
            0  0  0  0     1.580     93  105  117  129  141  153
            1  0  0  0     1.250     94  106  118  130  142  154
            0  1  0  0     1.250     95  107  119  131  143  155
            0  0  1  0     1.250     96  108  120  132  144  156
            2  0  0  0     2.500     97  109  121  133  145  157
            1  1  0  0     2.500     98  110  122  134  146  158
            1  0  1  0     2.500     99  111  123  135  147  159
            0  2  0  0     2.500    100  112  124  136  148  160
            0  1  1  0     2.500    101  113  125  137  149  161
            0  0  2  0     2.500    102  114  126  138  150  162

 Total number of charge fitting functions (nprimf)       552
 Total number of Cartesian basis functions (naos)        162
 Total number of Cartesian core functions  (ncos)          0

1
 ***************************************************************************************************



                                              ***********************
                                              *  T E C H N I C A L  *
                                              ***********************
  



 =============================================================
 P A R A L L E L I Z A T I O N  and  V E C T O R I Z A T I O N
 =============================================================
  
 Nr of parallel processes:                               10
 Maximum vector length in NumInt loops:                 128



 =====================
 S C F   U P D A T E S
 =====================
  
 Max. nr. of cycles:                               300
 Convergence criterion:                              0.0000010000
   secondary criterion:                              0.0010000000

 Mix parameter (when DIIS does not apply):           0.2000000000
 Mixed ADIIS+SDIIS will be used                  
    Max number of expansion vectors:                10
    Pure ADIIS when Max([F,P]) is above              0.1000000000
    Pure SDIIS when Max([F,P]) is below              0.0010000000
 Automatic ElectronSmearing (in case of problematic SCF convergence) disabled



 =================
 P R E C I S I O N  ***  (General: NumInt, NeglectFunctionTails, ...)  ***
 =================
  

 NumInt:           Target precision:                 6.0000000000
 -------           Initial precision:                6.0000000000
                   Min. precision (optimization):    6.0000000000

 Neglect Functions:          Basis functions:        0.1000000000E-07
 ------------------          Fit functions:          0.1000000000E-07



 ===========================
 L I N E A R   S C A L I N G
 ===========================
  

 Cut-off radii density fit:                        0.1000000000E-09
 Overlap cut-off criterion AO matrix elements:     0.1000000000E-07
 Cut-offs for Coulomb potential and fitted density:0.1000000000E-09
 Cut-off criterion for Coulomb multipole terms:    0.1000000000E-09
 Progressive Convergence parameter:                 0.000000000    

 Number of elements of the density matrix on this node (used, total):      1545     13203



 ===========================================
 Numerical Integration : Fuzzy Cells (Becke)
 ===========================================
  
 Becke grid quality: GOOD           
  
 Lebedev angular grid order:             min:  11 max:  31
 Nr. of radial points:                   min:  54 max:  61

 Total nr. of points:     109276
 Nr. of blocks:              854
 Block length:               128
 Nr. of dummy points:         36


 Test of Precision of the Numerical Integration Grid
 ===================================================

 Integral of the Total Core Density:                   0.00000000000000



 ========================
 Density Fitting (zlmFit)
 ========================
  
 ZlmFit Fit Quality: GOOD           
  
 Max L-expansion:                        min:   8 max:   9
 Nr. of radial interpolation points:     min:  78 max: 108



 =====
 S C F  ***  ScaSCF  ***
 =====
  
 Initial density matrix is taken from previous geometry

 CYCLE    1
  ***********************************************************
  ** : orbital data taken from :/tmp/amstmp_ams_kid0.580605988/GO1_GOStep5.rkf
  ***********************************************************
 SCF Error: norm([F,P])=      0.000000064454, max([F,P])=      0.000000018040
 orbitals (Q,E):
 ---------------
 A :4...23           ( 2.00    -0.9364)  ( 2.00    -0.6821)  ( 2.00    -0.5508)  ( 2.00    -0.4632)
                     ( 2.00    -0.4109)  ( 2.00    -0.3555)  ( 2.00    -0.3374)  ( 2.00    -0.3186)
                     ( 2.00    -0.2882)  ( 2.00    -0.2242)  ( 0.00    -0.0203)  ( 0.00     0.0056)
                     ( 0.00     0.0278)  ( 0.00     0.0283)  ( 0.00     0.0576)  ( 0.00     0.0819)
                     ( 0.00     0.1197)  ( 0.00     0.1492)  ( 0.00     0.1559)  ( 0.00     0.1777)

 CYCLE    2
  SDIIS (wt  0.000):  0.5865  0.4135
 A-DIIS (wt  1.000):  0.0000  1.0000
  DIIS coefficients:  0.0000  1.0000
 SCF Error: norm([F,P])=      0.000000088793, max([F,P])=      0.000000034368
 orbitals (Q,E):
 ---------------
 A :4...14           ( 2.00    -0.9364)  ( 2.00    -0.6821)  ( 2.00    -0.5508)  ( 2.00    -0.4632)
                     ( 2.00    -0.4109)  ( 2.00    -0.3555)  ( 2.00    -0.3374)  ( 2.00    -0.3186)
                     ( 2.00    -0.2882)  ( 2.00    -0.2242)  ( 0.00    -0.0203)

 SCF CONVERGED

 CYCLE    3
1
 ***************************************************************************************************



                                                *******************
                                                *  R E S U L T S  *
                                                *******************
  
 *** Using FIT density in Focky
  SDIIS (wt  0.000):  1.1777 -0.1777
 A-DIIS (wt  1.000):  0.0000  1.0000
  DIIS coefficients:  0.0000  1.0000
 SCF Error: norm([F,P])=      0.000000170968, max([F,P])=      0.000000066666

 Scaled ZORA Orbital Energies, per Irrep and Spin:
 =================================================
                        Occup              E (au)              E (eV)       Diff (eV) with prev. cycle
                        -----      --------------------        ------       --------------------------
 A
               4        2.000     -0.93635341028379E+00       -25.479               1.31E-06
               5        2.000     -0.68209740787780E+00       -18.561              -1.78E-07
               6        2.000     -0.55082463358444E+00       -14.989              -3.69E-08
               7        2.000     -0.46323820769024E+00       -12.605               4.99E-07
               8        2.000     -0.41085461303754E+00       -11.180              -2.72E-07
               9        2.000     -0.35545156348116E+00        -9.672               3.40E-07
              10        2.000     -0.33741980331711E+00        -9.182               2.77E-08
              11        2.000     -0.31861093280311E+00        -8.670               9.44E-08
              12        2.000     -0.28818567116498E+00        -7.842               6.00E-07
              13        2.000     -0.22423177266230E+00        -6.102               1.10E-06
              14        0.000     -0.20311476766150E-01        -0.553
              15        0.000      0.55560929226131E-02         0.151
              16        0.000      0.27823327807048E-01         0.757
              17        0.000      0.28276388124581E-01         0.769
              18        0.000      0.57642068658454E-01         1.569
              19        0.000      0.81936168061373E-01         2.230
              20        0.000      0.11972448409589E+00         3.258
              21        0.000      0.14918478155397E+00         4.060
              22        0.000      0.15585212446661E+00         4.241
              23        0.000      0.17772492298541E+00         4.836
  
 HOMO :       13 A                -0.22423177266230E+00
 LUMO :       14 A                -0.20311476766150E-01
  


 All Electron Calculation, thus no Orbital Energies of the Core Orbitals are calculated


 Fit test: (difference of exact and fit density, squared integrated, result summed over spins)
         Sum-of-Fragments:                             0.00000000076905
         Orthogonalized Fragments:                     0.00000455531754
         SCF:                                          0.00002108711273



 ==========================
 Electron Density at Nuclei
 ==========================
  
 The electron density is calculated at points on a small sphere around the center of a nucleus.
 The printed electron density is the average electron density on these points.
 The radius of the sphere is the printed approximate finite nuclear radius.
 Note: ZORA-4 density is used, which includes small component density

         Atom        Nuclear Radius (Angstrom)             Electron Density (a.u.)
         ----        -------------------------             -----------------------
     1)   C                 0.0000320678                              126.71824
     2)   C                 0.0000320678                              126.71485
     3)   O                 0.0000345546                              312.99068
     4)   H                 0.0000181514                                0.50570
     5)   H                 0.0000181514                                0.50753
     6)   H                 0.0000181514                                0.50759
     7)   H                 0.0000181514                                0.51502
     8)   H                 0.0000181514                                0.51494
     9)   H                 0.0000181514                                0.49585



 =======================================
 M U L L I K E N   P O P U L A T I O N S
 =======================================
  
 The survey below gives for each atom:
 a) the total charge (Z minus electrons)
 b) the net spin polarization (nr of electrons spin-A minus spin-B)
 c) for each spin the atomic electron valence density (integrated) per L-value.

 Atom              Charge    Spin density          S         P         D         F
 ----              ------    ------------       ------    ------    ------    ------
 1 C               0.6138                       2.8814    2.4623    0.0404    0.0021
 2 C               0.7396                       2.9083    2.2589    0.0882    0.0051
 3 O              -0.5032                       3.7826    4.6624    0.0531    0.0050
 4 H              -0.2232                       1.1375    0.0801    0.0056    0.0000
 5 H              -0.1931                       1.1069    0.0806    0.0056    0.0000
 6 H              -0.1931                       1.1069    0.0807    0.0056    0.0000
 7 H              -0.2155                       1.1370    0.0733    0.0053    0.0000
 8 H              -0.2157                       1.1371    0.0733    0.0053    0.0000
 9 H               0.1905                       0.6678    0.1292    0.0125    0.0000

 Populations of individual BAS functions
 ----------------------------------------
 1 C            0.4741  1.5485 -0.0016  0.9502 -0.0899 -0.1482 -0.2408 -0.1735  0.7903  0.8634
                0.8491  0.1682  0.1749  0.1788  0.0108  0.0053  0.0122  0.0053  0.0040  0.0028
                0.0035  0.0012  0.0019 -0.0015  0.0002 -0.0012 -0.0000 -0.0006 -0.0005 -0.0008
 2 C            0.4731  1.5507  0.0256  0.9490 -0.0901 -0.1875 -0.1335 -0.2809  0.8436  0.6195
                0.9036  0.1753  0.1394  0.1794  0.0142  0.0193  0.0132  0.0142  0.0232  0.0041
                0.0032 -0.0005  0.0018 -0.0000  0.0002 -0.0015  0.0036  0.0011 -0.0016 -0.0013
 3 O            0.6062  1.4021 -0.0405  1.0244  0.7904  0.2498  0.2324  0.3229  0.8873  0.8505
                1.0196  0.3147  0.2570  0.5283  0.0211  0.0106  0.0019  0.0241  0.0092 -0.0138
                0.0113 -0.0017  0.0044  0.0005  0.0001 -0.0096  0.0115  0.0082 -0.0083 -0.0114
 4 H            0.2563  0.5634  0.3178  0.0220  0.0335  0.0246 -0.0045  0.0019  0.0001  0.0111
                0.0021 -0.0052
 5 H            0.2086  0.5742  0.3241  0.0221  0.0277  0.0309 -0.0005  0.0007  0.0010 -0.0014
                0.0011  0.0047
 6 H            0.2088  0.5739  0.3242  0.0219  0.0260  0.0327 -0.0009  0.0005  0.0012 -0.0043
                0.0015  0.0075
 7 H            0.2433  0.5791  0.3146  0.0234  0.0180  0.0318 -0.0009  0.0004  0.0012 -0.0042
                0.0012  0.0076
 8 H            0.2433  0.5794  0.3144  0.0235  0.0210  0.0288 -0.0005  0.0006  0.0010 -0.0012
                0.0011  0.0043
 9 H            0.0987  0.1560  0.4132  0.0442  0.0331  0.0519  0.0146  0.0036  0.0043 -0.0041
                0.0003 -0.0062

 Gross Charges per Atom (Z minus electrons)
 ==========================================
             0.6138    0.7396   -0.5032   -0.2232   -0.1931   -0.1931   -0.2155   -0.2157    0.1905
 Net Total: -0.00000000


 Atom-Atom Population Matrix (off-diagonal elements not doubled)
 ===============================================================

     1 :     4.0245
     2 :     0.4002    3.9986
     3 :    -0.0512    0.2855    7.9344
     4 :     0.3388   -0.0246    0.0065    1.0740
     5 :     0.3743   -0.0362   -0.0012   -0.0745    1.0238
     6 :     0.3744   -0.0363   -0.0012   -0.0744   -0.0659    1.0237
     7 :    -0.0383    0.3593   -0.0568   -0.0093   -0.0433    0.0156    1.1750
     8 :    -0.0383    0.3592   -0.0568   -0.0092    0.0156   -0.0434   -0.1703    1.1753
     9 :     0.0018   -0.0451    0.4441   -0.0041    0.0006    0.0006   -0.0163   -0.0164    0.4444



 =================================================
 H I R S H F E L D   C H A R G E   A N A L Y S I S
 =================================================
  
 For each fragment: the (numerical) integral of rho(scf) * rho(fragment)/rho(sum-of-fragments)
 (nuclear charges are included, electrons are counted negative)

 The fragments and their ordering are defined in the early G E O M E T R Y output section.
 If you use single-atom fragments, this usually implies that all atoms of the same
 chemical type are grouped together. This may not be the order in which you listed them
 in the input file!

    1  C                        -0.1153
    2  C                         0.0005
    3  O                        -0.2200
    4  H                         0.0425
    5  H                         0.0411
    6  H                         0.0411
    7  H                         0.0300
    8  H                         0.0300
    9  H                         0.1502

 Sum of these charges (accuracy NumInt/Tails) =          -0.00000817



 =============================
 V O R O N O I   C H A R G E S
 =============================
  
 For each atom: the (numerical) integral of the total electronic charge density in its Voronoi cell,
 i.e. the region of space that is closer to that atom than to any other atom.
 (cf. Wigner-Seitz cells in crystals)

 Within the Voronoi cell the subintegrals over the atomic sphere and the remaining part are evaluated
 separately to give the numbers of electrons (negative charge) in these regions.
 The net total charge in the cell (including the nuclear charge) is also given.

 Values are provided for
    a) the Initial (sum-of-fragments) density
    b) the Orthogonalized-Fragments density
    c) the SCF density
    d) the Voronoi Deformation Density (VDD): the difference SCF-Initial for the complete atomic cell


  Atom                Initial                    OrthFrag                   SCF
             Sphere RestCell NetTotal   Sphere RestCell NetTotal   Sphere RestCell NetTotal      VDD
 -----       ------------------------   ------------------------   ------------------------    -----
    1 C      -2.112   -2.389    1.499   -2.223   -2.683    1.093   -2.133   -2.464    1.403   -0.096
    2 C      -2.112   -2.737    1.152   -2.222   -2.937    0.841   -2.126   -2.716    1.159    0.007
    3 O      -2.806   -4.788    0.405   -2.964   -4.695    0.341   -2.826   -4.992    0.182   -0.224
    4 H      -0.093   -1.406   -0.499   -0.118   -1.249   -0.367   -0.133   -1.332   -0.465    0.034
    5 H      -0.093   -1.407   -0.500   -0.118   -1.249   -0.368   -0.133   -1.328   -0.461    0.039
    6 H      -0.093   -1.412   -0.504   -0.118   -1.253   -0.372   -0.133   -1.333   -0.467    0.038
    7 H      -0.092   -1.411   -0.503   -0.118   -1.258   -0.376   -0.136   -1.344   -0.479    0.024
    8 H      -0.092   -1.414   -0.506   -0.118   -1.260   -0.378   -0.136   -1.345   -0.481    0.026
    9 H      -0.101   -1.442   -0.543   -0.105   -1.310   -0.414   -0.131   -1.260   -0.391    0.152
 ---------------------------------------------------------------------------------------------------
 Total NetCharge:               0.000                     -0.000                     -0.000   -0.000
 (accuracy NumInt/Tails)

 Remark: the 'NetTotal' Voronoi charges often do not match the Mulliken and/or Hirshfeld charges very
 well. This is caused by the fact that chemically different atoms are not treated in accordance with
 their relative sizes. (Voronoi cells are defined by boundary planes halfway between the atoms.)
 However, the CHANGES in charge, comparing 'Initial' to 'SCF' for instance, do give a fair indication
 of the flow of charge caused by the relaxation from sum-of-fragments to self-consistency.

 Warning: the absolute accuracy of the VDD charges obtained using the Fuzzy Cells (Becke) integration
 scheme is much poorer than the one obtained with an 'equivalent' Voronoi integration grid. 



 =================================================================
 M U L T I P O L E   D E R I V E D   C H A R G E   A N A L Y S I S
 =================================================================

 This charge analysis uses the atomic multipoles (obtained from the fitted density) up to some level X,
 and reconstructs these multipoles exactly (up to level X) by distributing charges over all atoms.
 This is achieved by using Lagrange multipliers and a weight function to keep the multipoles local.

 Dummy atoms can be included (by setting INCDUM in MDC-block to 1) to obtain a fractional charge.
 This is generally useful and necessary only for small symmetrical molecules, when there are not
 enough degrees of freedom to reconstruct the multipoles.

 Since the atomic multipoles are reconstructed up to level X,
 the molecular multipoles are represented also up to level X.
 The recommended level is to reconstruct up to quadrupole : -> MDC-q charges.

 See: M. Swart, P.Th. van Duijnen, J.G. Snijders, J.Comput.Chem., (2001), p. 79-88.

 ------------------------------------------------------------- 
 Atomic electronic multipole moments from SCF equations (a.u.)
 ------------------------------------------------------------- 

   atom        charge        dip-x     dip-y     dip-z      quad-xx   quad-xy   quad-xz   quad-yy   quad-yz   quad-zz
 --------------------------------------------------------------------------------------------------------------------
    1 C      0.229456    -0.042022  0.007974  0.001651    -0.014912  0.006917  0.000774  0.041338  0.005971 -0.026425
    2 C      0.313213     0.043090  0.065655  0.007973    -0.012380  0.004693  0.000496  0.038497  0.005699 -0.026117
    3 O     -0.280691     0.344810 -0.190543 -0.029828     0.405817  0.268982  0.024100  0.370209  0.098228 -0.776026
    4 H     -0.068114     0.002087 -0.001635 -0.000250    -0.074242  0.017565  0.001997  0.177350  0.024838 -0.103109
    5 H     -0.063506     0.005145  0.009757 -0.001723    -0.020204 -0.032999  0.063973 -0.040634 -0.066675  0.060838
    6 H     -0.063544     0.005237  0.008959  0.004031    -0.025907 -0.013987 -0.068031 -0.084076  0.040926  0.109983
    7 H     -0.075868    -0.005920  0.013740  0.000014    -0.038175 -0.006053 -0.060414 -0.052660  0.033171  0.090835
    8 H     -0.075860    -0.005851  0.013248  0.003686    -0.033062 -0.022971  0.058676 -0.018480 -0.051776  0.051542
    9 H      0.084915     0.083775  0.035335  0.003472     0.139914  0.043549  0.003172 -0.009507  0.010130 -0.130407

 --------------------------------------- 
 Multipole derived atomic charges (a.u.)
 --------------------------------------- 

 The MDC-m charges are just the Monopole terms in the multipole expansion, while for the MDC-d charges
 also the Dipoles are reconstructed. The usually preferred charges are the MDC-q charges.
 These reconstruct the Monopoles, Dipoles and Quadrupoles (both atomic AND molecular).

        Atom    Level:     MDC-m        MDC-d        MDC-q
 ---------------------------------------------------------
     1     C            0.229456     0.187366     0.529915
     2     C            0.313213     0.341741     0.110579
     3     O           -0.280691    -0.571662    -0.619101
     4     H           -0.068114    -0.067888    -0.153624
     5     H           -0.063506    -0.046610    -0.111364
     6     H           -0.063544    -0.046657    -0.114824
     7     H           -0.075868    -0.058951    -0.014958
     8     H           -0.075860    -0.058956    -0.003109
     9     H            0.084915     0.321616     0.376484

 ------------------------------------------------ 
 Average absolute deviations in atomic multipoles
 ------------------------------------------------ 

 Stated here are the average differences between the atomic multipoles
 and the reconstructed atomic multipoles (from the distributed charges).
 If these values are not zero, this means there are not enough degrees of freedom,
 to be able to reconstruct the atomic multipoles. (This usually happens only
 for small and/or highly symmetric molecules). If this is the case, one could add
 dummy atoms as extra point charges (and setting INCDUM in MDC-block to 1).

 Level:                                 MDC-d        MDC-q
 ---------------------------------------------------------
 Charge   (a.u.)                       0.0000       0.0000
 Dipole   (Debye)                      0.0000       0.0096
 Quad.    (a.u.)                       0.0660       0.0004

 --------------------------------------- 
 Represented molecular multipole moments
 --------------------------------------- 

 Given here are the Molecular multipole moments from the atomic charges, and from the Fit Density.
 Note that the atomic charges represent the latter, NOT the ones from the Exact density.

            Q (a.u.)             Dipole moment (Debye)                                          Quadrupole moment (a.u.)
                                 x         y         z              xx        xy        xz        yy        yz        zz
------------------------------------------------------------------------------------------------------------------------
MDC-m         0.0000        0.0260   -0.8811   -0.1161          0.5061    1.0061    0.1260   -0.4681   -0.1056   -0.0380
MDC-d        -0.0000        1.1198   -0.9765   -0.1440          0.6426    2.2670    0.3281   -0.4644   -0.1084   -0.1782
MDC-q        -0.0000        1.0996   -1.1004   -0.1235          1.1041    2.6711    0.4142   -0.7204   -0.1697   -0.3837
 
Fit.Dens.     0.0000        1.1198   -0.9765   -0.1440          1.0918    2.5352    0.3603   -0.7693   -0.1858   -0.3225



 =============
 Dipole Moment  ***  (Debye)  ***
 =============
  
 Vector   :         1.11974723     -0.97677107     -0.14402453
 Magnitude:         1.49286927

 This molecular dipole moment is calculated with analytic integration



 =========================================
 Quadrupole Moment (Buckingham convention)  ***  (a.u.)  ***
 =========================================
  
      quad-xx        quad-xy        quad-xz        quad-yy        quad-yz        quad-zz
      1.09226752     2.66860389     0.37282963    -0.76947826    -0.13558533    -0.32278925

 This molecular quadrupole moment is calculated with analytic integration
1



 ===========================
 B O N D I N G   E N E R G Y  ***  (decomposition)  ***
 ===========================
  
*** IMPORTANT NOTE ***

The bond energy is computed as an energy difference between molecule and
fragments. In particular when the fragments are single atoms, they are usually
computed as SPHERICALLY SYMMETRIC and SPIN-RESTRICTED. Obviously, this usually
does NOT represent the true atomic groundstate.

To obtain the 'real' bond energy, (atomic) correction terms must be applied
for the true (multiplet) fragment ground state. See ref: E.J.Baerends,
V.Branchadell, M.Sodupe, Chem.Phys.Lett.265 (1997) 481

General theoretical background on the bond energy decomposition scheme used
here (Morokuma-Ziegler) can be found in the review paper:
F.M. Bickelhaupt and E.J. Baerends,
"Kohn-Sham Density Functional Theory: Predicting and Understanding Chemistry"
In: Rev. Comput. Chem.; Lipkowitz, K. B. and Boyd, D. B., Eds.;
Wiley-VCH: New York, 2000, Vol. 15, 1-86.

Symbols used in the Bickelhaupt-Baerends (BB) paper are given below to make
the direct connection to that paper, where detailed explanations can be found
on the meaning of the various terms.


                                                   hartree              eV         kcal/mol           kJ/mol
                                      --------------------     -----------       ----------      -----------

Pauli Repulsion
  Kinetic (Delta T^0):                  13.540947098990369        368.4679          8497.07         35551.75
  Delta V^Pauli Coulomb:                -6.461739027167987       -175.8329         -4054.80        -16965.29
  Delta V^Pauli LDA-XC:                 -1.705973096549633        -46.4219         -1070.51         -4479.03
  Delta V^Pauli GGA-Exchange:            0.151051656417073          4.1103            94.79           396.59
  Delta V^Pauli GGA-Correlation:        -0.131449051151004         -3.5769           -82.49          -345.12
                                      --------------------     -----------       ----------      -----------
  Total Pauli Repulsion:                 5.392837580538817        146.7466          3384.06         14158.89
 (Total Pauli Repulsion =
  Delta E^Pauli in BB paper)

Steric Interaction
  Pauli Repulsion (Delta E^Pauli):       5.392837580538817        146.7466          3384.06         14158.89
  Electrostatic Interaction:            -1.013282829119060        -27.5728          -635.84         -2660.37
 (Electrostatic Interaction =
  Delta V_elstat in the BB paper)
                                      --------------------     -----------       ----------      -----------
  Total Steric Interaction:              4.379554751419757        119.1737          2748.21         11498.52
 (Total Steric Interaction =
  Delta E^0 in the BB paper)

Orbital Interactions
  A:                                    -6.048528082589442       -164.5888         -3795.51        -15880.41
                                      --------------------     -----------       ----------      -----------
  Total Orbital Interactions:           -6.048528082589443       -164.5888         -3795.51        -15880.41

Alternative Decomposition Orb.Int.
  Kinetic:                             -11.931782872461490       -324.6803         -7487.31        -31326.89
  Coulomb:                               5.697796417621722        155.0449          3575.42         14959.56
  XC:                                    0.185458372250326          5.0466           116.38           486.92
                                      --------------------     -----------       ----------      -----------
  Total Orbital Interactions:           -6.048528082589443       -164.5888         -3795.51        -15880.41

  Residu (E=Steric+OrbInt+Res):         -0.000001402418441         -0.0000            -0.00            -0.00

Total Bonding Energy:                   -1.668974733588126        -45.4151         -1047.30         -4381.89


Summary of Bonding Energy (energy terms are taken from the energy decomposition above)
======================================================================================

  Electrostatic Energy:                 -1.013282829119060        -27.5728          -635.84         -2660.37
  Kinetic Energy:                        1.609164226528879         43.7876          1009.77          4224.86
  Coulomb (Steric+OrbInt) Energy:       -0.763944011964706        -20.7880          -479.38         -2005.73
  XC Energy:                            -1.500912119033239        -40.8419          -941.84         -3940.64
                                      --------------------     -----------       ----------      -----------
  Total Bonding Energy:                 -1.668974733588127        -45.4151         -1047.30         -4381.89


Correction terms (incorporated in energies above; only for test purposes):

1. Indication of fit-quality: 1st-order fit-correction used in the energy (hartree):   0.0000525223
2. Electrostatic (Fit correction):   0.0000000000

Scaled ZORA energy correction, not included in bonding energy (hartree):           -0.0000334908
 NOTE: This scaled ZORA energy correction should only be used to compare two calculations
 in which the only difference in the calculation is the electron configuration.
 Then the difference in energy of this term should be added to the difference in energy of
 the two electron configurations.
 This term should not be used otherwise.
 In practice it is useful only for core excitation energy calculations.



 =========================================
 F R A G M E N T   E N E R G Y   T E R M S  ***  (summed over all fragments)  ***
 =========================================
  

The energy terms below are (parts of) the Total Energy of the fragments from which the molecule
 is built.

Exchange and Correlation
  Exchange LDA:                        -17.217487969420233       -468.5117        -10804.14        -45204.51
  Exchange GGA:                         -2.223971443334655        -60.5173         -1395.56         -5839.04
  Correlation LDA:                       0.000000000000000          0.0000             0.00             0.00
  Correlation GGA:                      -0.705766210850997        -19.2049          -442.88         -1852.99
                                      --------------------     -----------       ----------      -----------
  Total XC:                            -20.147225623605884       -548.2339        -12642.58        -52896.53
1



 =======================================================
 S F O   P O P U L A T I O N S ,   M O   A N A L Y S I S
 =======================================================
  
 A Mulliken population analysis is performed on (input-)selected MOs. All populations refer to SFOs.
 BAS populations may have been printed directly after the SCF part.


                                       === A ===


 SFO contributions (%) per orbital
 (multiplication by the orbital occupation yields the SFO Gross Populations)

 Orb.:        4      5      6      7      8      9     10     11     12     13     14     15     16     17
 occup:     2.00   2.00   2.00   2.00   2.00   2.00   2.00   2.00   2.00   2.00   0.00   0.00   0.00   0.00
 CF+SFO     ----   ----   ----   ----   ----   ----   ----   ----   ----   ----   ----   ----   ----   ----
 ------
      2:    0.69  31.16  12.90   0.05  -0.00  -0.18   0.06   0.00   0.33   0.00  -0.07   1.70   1.58   0.00
[...]
    9       1          6       0.54655901D-05
*** CPKS converged.
----------------------------------------------
    9       2          1       0.79092486D-02
    9       2          2       0.14590309D-02
    9       2          3       0.16382803D-03
    9       2          4       0.10411907D-03
    9       2          5       0.11861583D-04
    9       2          6       0.25723099D-05
*** CPKS converged.
----------------------------------------------
    9       3          1       0.19094343D-02
    9       3          2       0.48497128D-03
    9       3          3       0.12865703D-03
    9       3          4       0.16551937D-04
    9       3          5       0.52204759D-05
*** CPKS converged.
----------------------------------------------

====================  end of solving CPKS equations  ====================


====================================================================
*** DONE CALCULATING ANALYTICAL SECOND DERIVATIVES OF THE ENERGY ***
====================================================================

 Mulliken charges used for AMS results%charges...
Scanning modes in range provided by user.


    =====================
     CALCULATION RESULTS
    =====================

Energy (hartree)            -1.66897473

Gradients (hartree/bohr)
  Index   Atom            d/dx            d/dy            d/dz
      1      C    0.0000690361   -0.0000463673   -0.0000065718
      2      C    0.0000269185    0.0000950619    0.0000088299
      3      O   -0.0001344129    0.0000570181    0.0000159086
      4      H    0.0001285285   -0.0001315155   -0.0000223913
      5      H   -0.0000288919   -0.0001161788   -0.0000374131
      6      H   -0.0000230316   -0.0001302669    0.0000134149
      7      H    0.0000378614    0.0000814735   -0.0000163492
      8      H    0.0000426556    0.0000688567    0.0000265863
      9      H   -0.0001186636    0.0001219184    0.0000179858

 -----------------------
 Normal Mode Frequencies
 -----------------------

 Index   Frequency (cm-1)   Intensity (km/mol)
     7           229.0725              59.7024
     8           272.6409              47.7668
     9           410.9221              10.6827
    10           802.6320               0.5085
    11           876.2531              14.1920
    12          1006.3477              61.3768
    13          1078.1956              32.5985
    14          1145.9196               2.5653
    15          1243.0451              59.4791
    16          1268.0043               0.0570
    17          1365.4577               1.1542
    18          1412.7045              11.9924
    19          1446.9530               5.5337
    20          1463.9017               2.8887
    21          1485.0110               1.1743
    22          2927.8813              70.5350
    23          2955.8256              53.8523
    24          2995.1043              14.7952
    25          3072.1382              25.2532
    26          3074.5165              30.1648
    27          3779.7383              24.1858

 Zero-point energy (Hartree):     0.0782

 ------------
 Normal Modes
 ------------

 Number of removed rigid normal modes: 6
 
 Mode:     7      Frequency (cm-1):      229.0725     Intensity (km/mol):       59.7024
 Index  Atom      ---- Displacements (x/y/z) ----
     1     C      -0.000293   0.002922  -0.022021
     2     C      -0.000408   0.003875  -0.029796
     3     O       0.001250  -0.011975   0.091192
     4     H       0.005761  -0.053133   0.403324
     5     H       0.056838  -0.314016  -0.251802
     6     H      -0.062576   0.368421  -0.160119
     7     H      -0.022950   0.072503  -0.060519
     8     H       0.020964  -0.054391  -0.077778
     9     H      -0.009528   0.089734  -0.683411
 
 Mode:     8      Frequency (cm-1):      272.6409     Intensity (km/mol):       47.7668
 Index  Atom      ---- Displacements (x/y/z) ----
     1     C       0.000334  -0.002654   0.020809
     2     C      -0.000966   0.009418  -0.072065
     3     O      -0.000117   0.000232  -0.002222
     4     H       0.005902  -0.055637   0.423146
     5     H      -0.001170  -0.313541  -0.169242
     6     H      -0.001970   0.347226  -0.082099
     7     H      -0.050828   0.054671  -0.114861
     8     H       0.047637  -0.022994  -0.126483
     9     H       0.009820  -0.093931   0.715084
 
 Mode:     9      Frequency (cm-1):      410.9221     Intensity (km/mol):       10.6827
 Index  Atom      ---- Displacements (x/y/z) ----
     1     C      -0.101526  -0.175207  -0.021534
     2     C      -0.146177   0.116739   0.017331
     3     O       0.201472   0.115081   0.012270
     4     H       0.352106  -0.220691  -0.033311
     5     H      -0.272434  -0.415932  -0.062109
     6     H      -0.272277  -0.417894  -0.040273
     7     H      -0.169666   0.067211   0.021430
     8     H      -0.169488   0.069713   0.000854
     9     H       0.283603  -0.212671  -0.031284
 
 Mode:    10      Frequency (cm-1):      802.6320     Intensity (km/mol):        0.5085
 Index  Atom      ---- Displacements (x/y/z) ----
     1     C      -0.000773   0.006038  -0.046529
     2     C      -0.000862   0.008398  -0.064032
     3     O       0.000345  -0.002720   0.021187
     4     H       0.002393  -0.024739   0.187038
     5     H      -0.442377  -0.078487   0.186329
     6     H       0.447868   0.029412   0.187826
     7     H       0.438588  -0.095803   0.201302
     8     H      -0.432340   0.039025   0.231449
     9     H      -0.000143   0.001873  -0.013781
 
 Mode:    11      Frequency (cm-1):      876.2531     Intensity (km/mol):       14.1920
 Index  Atom      ---- Displacements (x/y/z) ----
     1     C       0.133871   0.155429   0.018463
     2     C      -0.108307   0.121469   0.017486
     3     O      -0.033708  -0.172817  -0.022220
     4     H       0.824427   0.088460   0.000188
     5     H      -0.061706  -0.201358  -0.071450
     6     H      -0.059324  -0.213271   0.018975
     7     H      -0.210399  -0.051969   0.004155
     8     H      -0.211167  -0.050138  -0.011407
     9     H      -0.051238  -0.125966  -0.015856
 
 Mode:    12      Frequency (cm-1):     1006.3477     Intensity (km/mol):       61.3768
 Index  Atom      ---- Displacements (x/y/z) ----
     1     C       0.207424  -0.037677  -0.007896
     2     C      -0.220004  -0.090356  -0.008731
     3     O      -0.018627   0.104788   0.014010
     4     H      -0.149691   0.006712   0.002739
     5     H       0.381096   0.228292   0.047151
     6     H       0.380592   0.234178   0.003000
     7     H      -0.167560   0.002231   0.000316
     8     H      -0.167764   0.001584   0.005098
     9     H       0.168729  -0.611583  -0.082681
 
 Mode:    13      Frequency (cm-1):     1078.1956     Intensity (km/mol):       32.5985
 Index  Atom      ---- Displacements (x/y/z) ----
     1     C      -0.004564  -0.115487  -0.015081
     2     C      -0.004865   0.261864   0.034408
     3     O       0.002863  -0.157420  -0.020677
     4     H      -0.516180  -0.052467   0.000152
     5     H       0.123393   0.238617   0.108622
     6     H       0.120774   0.259263  -0.046684
     7     H       0.143182   0.348761   0.066408
     8     H       0.142587   0.355201   0.022180
     9     H       0.053088  -0.393893  -0.052648
 
 Mode:    14      Frequency (cm-1):     1145.9196     Intensity (km/mol):        2.5653
 Index  Atom      ---- Displacements (x/y/z) ----
     1     C       0.001617  -0.014497   0.110934
     2     C      -0.002441   0.022578  -0.172332
     3     O       0.000717  -0.006881   0.052627
     4     H      -0.002940   0.030595  -0.231598
     5     H       0.347622   0.017910  -0.102909
     6     H      -0.350912   0.007573  -0.094220
     7     H       0.188821  -0.523030   0.094505
     8     H      -0.184189   0.479940   0.231570
     9     H       0.000038  -0.000017  -0.001519
 
 Mode:    15      Frequency (cm-1):     1243.0451     Intensity (km/mol):       59.4791
 Index  Atom      ---- Displacements (x/y/z) ----
     1     C       0.044775  -0.069499  -0.009575
     2     C      -0.063386   0.052720   0.007735
     3     O       0.052085  -0.027959  -0.004437
     4     H      -0.135872  -0.043518  -0.004322
     5     H       0.142033   0.161606   0.067980
     6     H       0.139673   0.174626  -0.028024
     7     H      -0.296588  -0.199639  -0.028191
     8     H      -0.297934  -0.202702  -0.016213
     9     H      -0.156341   0.753151   0.101093
 
 Mode:    16      Frequency (cm-1):     1268.0043     Intensity (km/mol):        0.0570
 Index  Atom      ---- Displacements (x/y/z) ----
     1     C      -0.001146   0.011232  -0.086216
     2     C       0.000265  -0.003291   0.025715
     3     O       0.000484  -0.003809   0.028834
     4     H       0.001535  -0.016680   0.125774
     5     H      -0.237022  -0.003416   0.057948
     6     H       0.239068  -0.010232   0.050053
     7     H      -0.421914  -0.498127  -0.049945
     8     H       0.421256   0.494609   0.068307
     9     H      -0.000109  -0.000256   0.010626
 
 Mode:    17      Frequency (cm-1):     1365.4577     Intensity (km/mol):        1.1542
 Index  Atom      ---- Displacements (x/y/z) ----
     1     C       0.131806   0.028527   0.001808
     2     C       0.027880   0.028798   0.003365
     3     O      -0.013437   0.009081   0.001379
     4     H      -0.586360   0.080081   0.019867
     5     H      -0.413132  -0.265724   0.145234
     6     H      -0.418311  -0.221406  -0.197397
     7     H      -0.142520  -0.163027  -0.024168
     8     H      -0.142647  -0.164480  -0.014810
     9     H       0.014873  -0.092120  -0.012207
 
 Mode:    18      Frequency (cm-1):     1412.7045     Intensity (km/mol):       11.9924
 Index  Atom      ---- Displacements (x/y/z) ----
     1     C       0.058389   0.044160   0.004917
     2     C      -0.141685  -0.083544  -0.009001
     3     O       0.048080  -0.035575  -0.005335
     4     H      -0.199213   0.061271   0.011671
     5     H      -0.081665  -0.178997  -0.041686
     6     H      -0.081375  -0.184777  -0.003800
     7     H       0.336748   0.448518   0.081947
     8     H       0.335978   0.455970   0.027354
     9     H      -0.081733   0.431544   0.057807
 
 Mode:    19      Frequency (cm-1):     1446.9530     Intensity (km/mol):        5.5337
 Index  Atom      ---- Displacements (x/y/z) ----
     1     C       0.000717  -0.005819   0.045620
     2     C       0.000370  -0.003213   0.024457
     3     O      -0.000010   0.000201  -0.001667
     4     H      -0.011291   0.092121  -0.697416
     5     H      -0.218287  -0.437473  -0.103789
     6     H       0.217444   0.447245   0.008162
     7     H      -0.049843   0.007247  -0.002378
     8     H       0.049305  -0.005797  -0.005078
     9     H      -0.000110   0.001016  -0.007430
 
 Mode:    20      Frequency (cm-1):     1463.9017     Intensity (km/mol):        2.8887
 Index  Atom      ---- Displacements (x/y/z) ----
     1     C      -0.024467   0.036954   0.005110
     2     C       0.037679   0.011477   0.000918
     3     O      -0.000752  -0.006038  -0.000778
     4     H      -0.305585   0.044033   0.011836
     5     H       0.312336  -0.305177  -0.400934
     6     H       0.321299  -0.399594   0.299244
     7     H      -0.240298   0.121942  -0.160330
     8     H      -0.235417   0.075666   0.193078
     9     H       0.002286  -0.017705  -0.002322
 
 Mode:    21      Frequency (cm-1):     1485.0110     Intensity (km/mol):        1.1743
 Index  Atom      ---- Displacements (x/y/z) ----
     1     C       0.010935  -0.017046  -0.002394
     2     C       0.055030  -0.059982  -0.008649
     3     O       0.002685  -0.007782  -0.001056
     4     H       0.150173  -0.025750  -0.005875
     5     H      -0.154325   0.137015   0.189570
     6     H      -0.158777   0.181337  -0.143189
     7     H      -0.338731   0.426148  -0.331486
     8     H      -0.327506   0.325096   0.439613
     9     H       0.001125  -0.003179  -0.000390
 
 Mode:    22      Frequency (cm-1):     2927.8813     Intensity (km/mol):       70.5350
 Index  Atom      ---- Displacements (x/y/z) ----
     1     C       0.001211  -0.005106  -0.000726
     2     C      -0.052747   0.037630   0.006157
     3     O       0.001206   0.002639   0.000328
     4     H      -0.001359   0.052083   0.006860
     5     H      -0.003164   0.002933  -0.009504
     6     H      -0.003139   0.000523   0.010554
     7     H       0.295722  -0.171217  -0.619938
     8     H       0.309094  -0.321273   0.541129
     9     H      -0.002659   0.007821   0.001035
 
 Mode:    23      Frequency (cm-1):     2955.8256     Intensity (km/mol):       53.8523
 Index  Atom      ---- Displacements (x/y/z) ----
     1     C       0.000145  -0.001346   0.010103
     2     C      -0.001602   0.012506  -0.093721
     3     O       0.000007  -0.000022   0.000262
     4     H       0.000056  -0.000360   0.004455
     5     H      -0.038652   0.040800  -0.061847
     6     H       0.036832  -0.023298  -0.071488
     7     H      -0.315583   0.179588   0.592988
     8     H       0.334493  -0.328740   0.522959
     9     H       0.000087  -0.000520   0.004400
 
 Mode:    24      Frequency (cm-1):     2995.1043     Intensity (km/mol):       14.7952
 Index  Atom      ---- Displacements (x/y/z) ----
     1     C       0.047295   0.013752   0.001024
     2     C      -0.002276   0.000098   0.000018
     3     O      -0.000079  -0.000008   0.000001
     4     H      -0.043516  -0.575791  -0.075271
     5     H      -0.259004   0.269186  -0.434247
     6     H      -0.246456   0.146970   0.497701
     7     H       0.006536  -0.002120  -0.010102
     8     H       0.006991  -0.004823   0.009269
     9     H       0.000667   0.001786   0.000236
 
 Mode:    25      Frequency (cm-1):     3072.1382     Intensity (km/mol):       25.2532
 Index  Atom      ---- Displacements (x/y/z) ----
     1     C       0.024077  -0.087618  -0.013387
     2     C       0.003604  -0.003733  -0.000751
     3     O      -0.000079   0.000470   0.000067
     4     H       0.075889   0.795979   0.103460
     5     H      -0.184407   0.169234  -0.312216
     6     H      -0.185066   0.087821   0.369625
     7     H      -0.017563   0.009875   0.033019
     8     H      -0.017071   0.016774  -0.026686
     9     H      -0.000127   0.000566   0.000083
 
 Mode:    26      Frequency (cm-1):     3074.5165     Intensity (km/mol):       30.1648
 Index  Atom      ---- Displacements (x/y/z) ----
     1     C      -0.001757   0.013440  -0.091194
     2     C      -0.000235   0.001650  -0.012051
     3     O       0.000005  -0.000038   0.000238
     4     H      -0.001443  -0.009426  -0.021738
     5     H       0.335980  -0.333415   0.524332
     6     H      -0.313433   0.181881   0.589117
     7     H      -0.037129   0.018223   0.069955
     8     H       0.039643  -0.036179   0.062847
     9     H       0.000020  -0.000146   0.001040
 
 Mode:    27      Frequency (cm-1):     3779.7383     Intensity (km/mol):       24.1858
 Index  Atom      ---- Displacements (x/y/z) ----
     1     C       0.000252  -0.000361  -0.000051
     2     C      -0.001615   0.001418   0.000210
     3     O      -0.060045  -0.017135  -0.001414
     4     H      -0.001010   0.000669   0.000122
     5     H       0.000925   0.000112   0.000639
     6     H       0.000932   0.000303  -0.000607
     7     H       0.001424   0.003199  -0.000839
     8     H       0.001465   0.002930   0.001539
     9     H       0.965452   0.252146   0.019697

PES point character: Geometry corresponds to a local minimum on the PES.




 ============================
 Statistical Thermal Analysis  ***  ideal gas assumed  ***
 ============================
  
 Pressure:                  1.000000 atm.
 Temperature:             298.150000 K



 Moments of Inertia [amu*bohr^2] and principal axis
 ==================================================

          51.1375        195.6514        224.0556
 ------------------------------------------------
          -0.6767          0.7361         -0.0140
          -0.7312         -0.6697          0.1302
          -0.0864         -0.0984         -0.9914


 The rotational contribution to the molecular entropy includes
 a term, dependent on the symmetry number sigma. The results 
 reported below were computed using sigma = 1, determined from
 the point group symmetry of the input geometry (NOSYM). 
 If this is not the correct symmetry, try symmetrizing the molecule before
 running the calculation (note: linear molecules should be aligned along one
 of the Cartesian axes).
 Contributions from frequencies below 20 1/cm are not included in vibrational sums.
 Their contributions, if any, are reported separately.


     Temp                                                        Transl      Rotat     Vibrat     Total
     ----                                                        ------      -----     ------     -----

     298.15   Entropy (cal/mol-K):                               37.406     22.332      5.103     64.841
              Nuclear Internal Energy (kcal/mol):                 0.889      0.889     50.025     51.803
              Constant Volume Heat Capacity (cal/mol-K):          2.981      2.981      7.877     13.839
          (c) Constant Volume Heat Capacity (cal/mol-K):          2.981      2.981      7.835     13.797

       Summary of energy terms
                                                   hartree              eV         kcal/mol           kJ/mol
                                      --------------------     -----------       ----------      -----------
      Energy from Engine:               -1.668974733588126        -45.4151         -1047.30         -4381.89
      Nuclear Internal Energy:           0.082552747507028          2.2464            51.80           216.74
  (c) Nuclear Internal Energy:           0.082517850192827          2.2454            51.78           216.65
      Internal Energy U:                -1.586421986081098        -43.1687          -995.49         -4165.15
      pV/n = RT:                         0.000944186013486          0.0257             0.59             2.48
      Enthalpy H:                       -1.585477800067612        -43.1430          -994.90         -4162.67
      -T*S:                             -0.030808269075760         -0.8383           -19.33           -80.89
  (c) -T*S:                             -0.030814094947894         -0.8385           -19.34           -80.90
      Gibbs free energy:                -1.616286069143372        -43.9814         -1014.23         -4243.56
 
 
 
  (c) The properties marked with this symbol have been corrected using 'low vibrational frequency free rotor
      interpolation corrections'. For those terms all positive frequencies are used (also ones below 20 1/cm),
      but the contribution to the partition function of small vibrational frequencies is modified as described
      in the following paper:
      S. Grimme, 'Supramolecular Binding Thermodynamics by Dispersion-Corrected Density Functional Theory'
      (Chem. Eur. J. 2012, 18, 9955-9964)
      Configuration: Dampener Frequency          :   100.000 1/cm
                     Dampener Alpha              :     4.000
                     Averaging Moment of Inertia : 1.000E-44 kg m2

--------------
Atomic charges
--------------
  Index   Atom    Charge
      1      C    0.6138
      2      C    0.7396
      3      O   -0.5032
      4      H   -0.2232
      5      H   -0.1931
      6      H   -0.1931
      7      H   -0.2155
      8      H   -0.2157
      9      H    0.1905


Dipole moment vector    (Debye):     1.11974723   -0.97677107   -0.14402453
              magnitude (Debye):     1.49286927


Final PES point is a local minimum. Geometry optimization successful!


AMS application finished. Exiting.
NORMAL TERMINATION
     Total cpu time:     881.49
  Total system time:      29.37
 Total elapsed time:    1060.81
