

 Parallel Execution: Process Information
 ==============================================================================
 Rank   Node Name                              NodeID   MyNodeRank  NodeMaster
    0   feweb57096.feweb.vu.nl                    0          0          0
    1   feweb57096.feweb.vu.nl                    0          1         -1
    2   feweb57096.feweb.vu.nl                    0          2         -1
    3   feweb57096.feweb.vu.nl                    0          3         -1
    4   feweb57096.feweb.vu.nl                    0          4         -1
    5   feweb57096.feweb.vu.nl                    0          5         -1
    6   feweb57096.feweb.vu.nl                    0          6         -1
    7   feweb57096.feweb.vu.nl                    0          7         -1
    8   feweb57096.feweb.vu.nl                    0          8         -1
    9   feweb57096.feweb.vu.nl                    0          9         -1
 ==============================================================================


May use up to 15625MB of RAM as shared memory on node 0

 *******************************************************************************
 *                                                                             *
 *  --------------------------------                                           *
 *   Amsterdam Modeling Suite (AMS)              2022.103                      *
 *  --------------------------------                                           *
 *                                               r104886 2022-06-17            *
 *                                                                             *
 *                                                                             *
 *                              =================                              *
 *                              |               |                              *
 *                              |     A M S     |                              *
 *                              |               |                              *
 *                              =================                              *
 *                                                                             *
 *                                                                             *
 *   Online information and documentation:  https://www.scm.com/support/       *
 *   E-mail:  support@scm.com   info@scm.com                                   *
 *                                                                             *
 *   Scientific publications using AMS results must be properly referenced     *
 *   See the User Manuals (or the web site) for recommended citations          *
 *   The terms and conditions of the End User License Agreement apply to       *
 *   the use of AMS, https://www.scm.com/license-terms/                        *
 *                                                                             *
 **********************  x86_64_darwin_intel / openmpi  ************************
 
 Licensed to: Prof Visscher, Prof Bickelhaupt, Prof Fonseca Guerra / Vrije Universiteit, Theoretische Chemie / Amsterdam / NETHERLANDS 2022-12-13 09:59:29
 SCM User ID: u21794
  
 AMS 2022.103  RunTime: Sep15-2023 16:31:43  ShM Nodes: 1  Procs: 10

 AMS jobname: ams
 AMS jobid  : 900782443

 Start   directory: /Users/yumanhordijk/PhD/TheoCheM_stack/TCutility/test/fixtures/level_of_theory/M06_2X/tmp.yumanhordijk.13897.0.noindex/
 Results directory: /Users/yumanhordijk/PhD/TheoCheM_stack/TCutility/test/fixtures/level_of_theory/M06_2X/trans_cyclooctene.results/
 Scratch directory: /tmp/amstmp_ams_kid0.900782443/


 Communication costs MPI_COMM_WORLD:      3.380 usec per message,   0.0444 usec per 8-byte item
 Communication costs for intra-node:      2.141 usec per message,   0.0399 usec per 8-byte item

 RNG seed: -1861856828 1789363325 -818270282 -2048033155 863270967 -2064540771 -1863330755 1843613419



                     *************************************************************************
                     *  ADF 2022.103  RunTime: Sep15-2023 16:31:45  ShM Nodes: 1  Procs: 10  *
                     *************************************************************************
  
       ****************************
       * SINGLE POINT CALCULATION *
       ****************************
 
--------
Geometry
--------
Formula: C8H14
Atoms
  Index Symbol   x (angstrom)   y (angstrom)   z (angstrom)
      1      C    -3.83723365     0.57937254    -0.44882261
      2      C    -3.14185916     1.26912881     0.45214986
      3      C    -1.86724252     1.94963779     0.07289919
      4      C    -0.77989639     0.85222566     0.22505173
      5      C    -1.14918685    -0.49992172    -0.42145139
      6      C    -2.07505268    -1.42293734     0.41875635
      7      C    -3.42976317    -1.78459588    -0.22696778
      8      C    -4.52219867    -0.69328167    -0.06971974
      9      H    -3.67614852     0.73625510    -1.51234883
     10      H    -3.29605243     1.10544269     1.51573500
     11      H    -1.62074796     2.79380810     0.72140282
     12      H    -1.89445669     2.29486741    -0.96508795
     13      H    -0.57790272     0.69977223     1.29020783
     14      H     0.14314925     1.21557783    -0.23809213
     15      H    -0.20954611    -1.03660252    -0.59071590
     16      H    -1.58721369    -0.32115214    -1.40824074
     17      H    -2.24994149    -0.98601873     1.40670342
     18      H    -1.54258871    -2.36543622     0.58512755
     19      H    -3.79589182    -2.70768846     0.23372807
     20      H    -3.27968731    -1.98374880    -1.29302874
     21      H    -4.86493631    -0.66585264     0.96907404
     22      H    -5.36907305    -0.93534046    -0.71636006
 
Total System Charge             0.00000
Bonding info available!
 
 
----------------
ADF Engine Input
----------------
 
 Basis
 Type QZ4P
 Core None
 End
 XC
 MetaHybrid M06-2X
 End
 NumericalQuality Good
 

 Title: *** (NO TITLE) ***

 *** adf ***



 ===========================
 A T T A C H E D   F I L E S
 ===========================
  



 ===============================
 M O D E L   P A R A M E T E R S
 ===============================
  
 DENSITY FUNCTIONAL POTENTIAL (scf)
    Meta-Hybrid:                       M06-2X                                  == Not Default ==

 SPIN  (restricted / unrestr.)
    Molecule:                          Restricted                               
    Fragments:                         Restricted                               

 OTHER ASPECTS
    Relativistic Corrections:          scalar (ZORA,MAPA)                       

    Nuclear Charge Density Model:      Point Charge Nuclei                      
    Core Treatment:                    Frozen Orbital(s)                        

    Hyperfine or Zeeman Interaction:   ---                                      


 Fragment File(s)
 ----------------
 C:
         file : /Users/yumanhordijk/PhD/TheoCheM_stack/TCutility/test/fixtures/level_of_theory/M06_2X/trans_cyclooctene.results/t21.5E8664C2.C
         jobid: 0
         title: Carbon (QZ, all electron, 7S 4P 2D 2F)
 H:
         file : /Users/yumanhordijk/PhD/TheoCheM_stack/TCutility/test/fixtures/level_of_theory/M06_2X/trans_cyclooctene.results/t21.47B0E508.H
         jobid: 0
         title: Hydrogen (QZ, all electron, 5S 2P 2D)



 ===============
 G E O M E T R Y  ***  3D  Molecule  ***
 ===============
  

 ATOMS
 =====                            X Y Z                    CHARGE
                                (Angstrom)             Nucl     +Core       At.Mass
                       --------------------------    ----------------       -------
    1  C              -3.8372    0.5794   -0.4488      6.00      6.00       12.0000
    2  C              -3.1419    1.2691    0.4521      6.00      6.00       12.0000
    3  C              -1.8672    1.9496    0.0729      6.00      6.00       12.0000
    4  C              -0.7799    0.8522    0.2251      6.00      6.00       12.0000
    5  C              -1.1492   -0.4999   -0.4215      6.00      6.00       12.0000
    6  C              -2.0751   -1.4229    0.4188      6.00      6.00       12.0000
    7  C              -3.4298   -1.7846   -0.2270      6.00      6.00       12.0000
    8  C              -4.5222   -0.6933   -0.0697      6.00      6.00       12.0000
    9  H              -3.6761    0.7363   -1.5123      1.00      1.00        1.0078
   10  H              -3.2961    1.1054    1.5157      1.00      1.00        1.0078
   11  H              -1.6207    2.7938    0.7214      1.00      1.00        1.0078
   12  H              -1.8945    2.2949   -0.9651      1.00      1.00        1.0078
   13  H              -0.5779    0.6998    1.2902      1.00      1.00        1.0078
   14  H               0.1431    1.2156   -0.2381      1.00      1.00        1.0078
   15  H              -0.2095   -1.0366   -0.5907      1.00      1.00        1.0078
   16  H              -1.5872   -0.3212   -1.4082      1.00      1.00        1.0078
   17  H              -2.2499   -0.9860    1.4067      1.00      1.00        1.0078
   18  H              -1.5426   -2.3654    0.5851      1.00      1.00        1.0078
   19  H              -3.7959   -2.7077    0.2337      1.00      1.00        1.0078
   20  H              -3.2797   -1.9837   -1.2930      1.00      1.00        1.0078
   21  H              -4.8649   -0.6659    0.9691      1.00      1.00        1.0078
   22  H              -5.3691   -0.9353   -0.7164      1.00      1.00        1.0078


 FRAGMENTS
 =========                                     Atoms in this Fragment     Cart. coord.s (Angstrom)
                                               -------------------------------------------------------
    1  C                                                 1  C           -3.8372    0.5794   -0.4488
    2  C                                                 2  C           -3.1419    1.2691    0.4521
    3  C                                                 3  C           -1.8672    1.9496    0.0729
    4  C                                                 4  C           -0.7799    0.8522    0.2251
    5  C                                                 5  C           -1.1492   -0.4999   -0.4215
    6  C                                                 6  C           -2.0751   -1.4229    0.4188
    7  C                                                 7  C           -3.4298   -1.7846   -0.2270
    8  C                                                 8  C           -4.5222   -0.6933   -0.0697
    9  H                                                 9  H           -3.6761    0.7363   -1.5123
   10  H                                                10  H           -3.2961    1.1054    1.5157
   11  H                                                11  H           -1.6207    2.7938    0.7214
   12  H                                                12  H           -1.8945    2.2949   -0.9651
   13  H                                                13  H           -0.5779    0.6998    1.2902
   14  H                                                14  H            0.1431    1.2156   -0.2381
   15  H                                                15  H           -0.2095   -1.0366   -0.5907
   16  H                                                16  H           -1.5872   -0.3212   -1.4082
   17  H                                                17  H           -2.2499   -0.9860    1.4067
   18  H                                                18  H           -1.5426   -2.3654    0.5851
   19  H                                                19  H           -3.7959   -2.7077    0.2337
   20  H                                                20  H           -3.2797   -1.9837   -1.2930
   21  H                                                21  H           -4.8649   -0.6659    0.9691
   22  H                                                22  H           -5.3691   -0.9353   -0.7164



 =====================================
 S Y M M E T R Y ,   E L E C T R O N S
 =====================================
  
 Symmetry: NOSYM

 Irreducible Representations, including subspecies
 -------------------------------------------------
 A

 Symmetry is NOT used when fitting density


 Configuration of Valence Electrons
 ==================================
 ( determined in the SCF procedure )

 Total:   62

 Net Charge: 0 (Nuclei minus Electrons)

 Aufbau principle for MO occupations will be applied through SCF cycle no.     150
 Thereafter, the program will assign electrons to MOs that are spatially
 similar to the occupied MOs in a "reference" cycle ("KeepOrbitals").
 The reference cycle is always the PREVIOUS cycle: it will evolve with
 the SCF procedure.
1
 ***************************************************************************************************



                                      ****************************************
                                      *  B U I L D : (Fragments, Functions)  *
                                      ****************************************
  



 =======
 S F O s  ***  (Symmetrized Fragment Orbitals)  ***
 =======
  
 SFOs are linear combinations of (valence) Fragment Orbitals (FOs), such that the SFOs transform as the
 irreducible representations of the (molecular) symmetry group. Each SFO is therefore characterized by
 an irrep of the molecule and by a few (or only one) generating FOs.
 The SFOs constitute a symmetry-adapted basis for the Fock matrix. The MO eigenvector coefficients in
 this basis provide a direct interpretation of the MOs in terms of Frontier Orbital Theory.

 The SFOs are combined with auxiliary Core Functions (CFs) to ensure orthogonalization on the (frozen)
 Core Orbitals (COs). The Core-orthogonalized SFOs (CSFOs) constitute the true Fock basis.

 The FOs, and hence also the (C)SFOs are combinations of the elementary basis functions (BAS). The basis
 functions that participate in the description of the SFOs depend on the irrep. The indices of the
 involved functions are printed below for each irrep.
 (The complete list of primitive basis functions is printed in another section)

 Total nr. of (C)SFOs (summation over all irreps) :   638

 NOTE: a (C)SFO that is defined as a combination of more than one FO is usually NOT normalized.



                                       === A ===
 Nr. of SFOs :  638
 Cartesian basis functions that participate in this irrep (total number =   730) :
      1     2     3     4     5     6     7     8    11    14
     17     9    12    15    18    10    13    16    19    20
     26    21    27    22    28    23    29    24    30    25
     31    32    42    33    43    34    44    35    45    36
     46    37    47    38    48    39    49    40    50    41
     51    52    53    54    55    56    57    58    59    62
     65    68    60    63    66    69    61    64    67    70
     71    77    72    78    73    79    74    80    75    81
     76    82    83    93    84    94    85    95    86    96
     87    97    88    98    89    99    90   100    91   101
     92   102   103   104   105   106   107   108   109   110
    113   116   119   111   114   117   120   112   115   118
    121   122   128   123   129   124   130   125   131   126
    132   127   133   134   144   135   145   136   146   137
    147   138   148   139   149   140   150   141   151   142
    152   143   153   154   155   156   157   158   159   160
    161   164   167   170   162   165   168   171   163   166
    169   172   173   179   174   180   175   181   176   182
    177   183   178   184   185   195   186   196   187   197
    188   198   189   199   190   200   191   201   192   202
    193   203   194   204   205   206   207   208   209   210
    211   212   215   218   221   213   216   219   222   214
    217   220   223   224   230   225   231   226   232   227
    233   228   234   229   235   236   246   237   247   238
    248   239   249   240   250   241   251   242   252   243
    253   244   254   245   255   256   257   258   259   260
    261   262   263   266   269   272   264   267   270   273
    265   268   271   274   275   281   276   282   277   283
    278   284   279   285   280   286   287   297   288   298
    289   299   290   300   291   301   292   302   293   303
    294   304   295   305   296   306   307   308   309   310
    311   312   313   314   317   320   323   315   318   321
    324   316   319   322   325   326   332   327   333   328
    334   329   335   330   336   331   337   338   348   339
    349   340   350   341   351   342   352   343   353   344
    354   345   355   346   356   347   357   358   359   360
    361   362   363   364   365   368   371   374   366   369
    372   375   367   370   373   376   377   383   378   384
    379   385   380   386   381   387   382   388   389   399
    390   400   391   401   392   402   393   403   394   404
    395   405   396   406   397   407   398   408   409   410
    411   412   413   414   417   415   418   416   419   420
    426   421   427   422   428   423   429   424   430   425
    431   432   433   434   435   436   437   440   438   441
    439   442   443   449   444   450   445   451   446   452
    447   453   448   454   455   456   457   458   459   460
    463   461   464   462   465   466   472   467   473   468
    474   469   475   470   476   471   477   478   479   480
    481   482   483   486   484   487   485   488   489   495
    490   496   491   497   492   498   493   499   494   500
    501   502   503   504   505   506   509   507   510   508
    511   512   518   513   519   514   520   515   521   516
    522   517   523   524   525   526   527   528   529   532
    530   533   531   534   535   541   536   542   537   543
    538   544   539   545   540   546   547   548   549   550
    551   552   555   553   556   554   557   558   564   559
    565   560   566   561   567   562   568   563   569   570
    571   572   573   574   575   578   576   579   577   580
    581   587   582   588   583   589   584   590   585   591
    586   592   593   594   595   596   597   598   601   599
    602   600   603   604   610   605   611   606   612   607
    613   608   614   609   615   616   617   618   619   620
    621   624   622   625   623   626   627   633   628   634
    629   635   630   636   631   637   632   638   639   640
    641   642   643   644   647   645   648   646   649   650
    656   651   657   652   658   653   659   654   660   655
    661   662   663   664   665   666   667   670   668   671
    669   672   673   679   674   680   675   681   676   682
    677   683   678   684   685   686   687   688   689   690
    693   691   694   692   695   696   702   697   703   698
    704   699   705   700   706   701   707   708   709   710
    711   712   713   716   714   717   715   718   719   725
    720   726   721   727   722   728   723   729   724   730

    SFO  (index         Fragment          Generating    Expansion in Fragment Orbitals
  indx  incl.CFs)   Occup   Orb.Energy   FragmentType  Coeff.   Orbital     on Fragment
 --------------------------------------------------------------------------------------
     1       1      2.000     -10.743 au  C             1.00      1 S               1
                        (    -292.319 eV)
     2       2      2.000      -0.646 au  C             1.00      2 S               1
                        (     -17.589 eV)
     3       3       --         0.170 au  C             1.00      3 S               1
                        (       4.630 eV)
     4       4       --         1.324 au  C             1.00      4 S               1
                        (      36.026 eV)
     5       5       --         6.306 au  C             1.00      5 S               1
                        (     171.595 eV)
     6       6       --        27.672 au  C             1.00      6 S               1
                        (     752.985 eV)
     7       7       --       171.385 au  C             1.00      7 S               1
                        (    4663.635 eV)
     8       8      0.667      -0.174 au  C             1.00      1 P:x             1
                        (      -4.723 eV)
     9       9       --         0.168 au  C             1.00      2 P:x             1
                        (       4.559 eV)
    10      10       --         1.213 au  C             1.00      3 P:x             1
                        (      33.008 eV)
    11      11       --        10.182 au  C             1.00      4 P:x             1
                        (     277.061 eV)
    12      12      0.667      -0.174 au  C             1.00      1 P:y             1
                        (      -4.723 eV)
    13      13       --         0.168 au  C             1.00      2 P:y             1
                        (       4.559 eV)
    14      14       --         1.213 au  C             1.00      3 P:y             1
                        (      33.008 eV)
    15      15       --        10.182 au  C             1.00      4 P:y             1
                        (     277.061 eV)
    16      16      0.667      -0.174 au  C             1.00      1 P:z             1
                        (      -4.723 eV)
    17      17       --         0.168 au  C             1.00      2 P:z             1
                        (       4.559 eV)
    18      18       --         1.213 au  C             1.00      3 P:z             1
                        (      33.008 eV)
    19      19       --        10.182 au  C             1.00      4 P:z             1
                        (     277.061 eV)
    20      20       --         0.522 au  C             1.00      1 D:z2            1
                        (      14.191 eV)
    21      21       --         2.555 au  C             1.00      2 D:z2            1
                        (      69.529 eV)
    22      22       --         0.522 au  C             1.00      1 D:x2-y2         1
                        (      14.191 eV)
    23      23       --         2.555 au  C             1.00      2 D:x2-y2         1
                        (      69.529 eV)
    24      24       --         0.522 au  C             1.00      1 D:xy            1
                        (      14.191 eV)
    25      25       --         2.555 au  C             1.00      2 D:xy            1
                        (      69.529 eV)
    26      26       --         0.522 au  C             1.00      1 D:xz            1
                        (      14.191 eV)
    27      27       --         2.555 au  C             1.00      2 D:xz            1
                        (      69.529 eV)
    28      28       --         0.522 au  C             1.00      1 D:yz            1
                        (      14.191 eV)
    29      29       --         2.555 au  C             1.00      2 D:yz            1
                        (      69.529 eV)
    30      30       --         1.340 au  C             1.00      1 F:z3            1
                        (      36.459 eV)
    31      31       --         7.104 au  C             1.00      2 F:z3            1
                        (     193.318 eV)
    32      32       --         1.340 au  C             1.00      1 F:z             1
                        (      36.459 eV)
    33      33       --         7.104 au  C             1.00      2 F:z             1
                        (     193.318 eV)
    34      34       --         1.340 au  C             1.00      1 F:xyz           1
                        (      36.459 eV)
    35      35       --         7.104 au  C             1.00      2 F:xyz           1
                        (     193.318 eV)
    36      36       --         1.340 au  C             1.00      1 F:z2x           1
                        (      36.459 eV)
    37      37       --         7.104 au  C             1.00      2 F:z2x           1
                        (     193.318 eV)
    38      38       --         1.340 au  C             1.00      1 F:z2y           1
                        (      36.459 eV)
    39      39       --         7.104 au  C             1.00      2 F:z2y           1
                        (     193.318 eV)
    40      40       --         1.340 au  C             1.00      1 F:x             1
                        (      36.459 eV)
    41      41       --         7.104 au  C             1.00      2 F:x             1
                        (     193.318 eV)
    42      42       --         1.340 au  C             1.00      1 F:y             1
                        (      36.459 eV)
    43      43       --         7.104 au  C             1.00      2 F:y             1
                        (     193.318 eV)
    44      44      2.000     -10.743 au  C             1.00      1 S               2
                        (    -292.319 eV)
    45      45      2.000      -0.646 au  C             1.00      2 S               2
                        (     -17.589 eV)
    46      46       --         0.170 au  C             1.00      3 S               2
                        (       4.630 eV)
    47      47       --         1.324 au  C             1.00      4 S               2
                        (      36.026 eV)
    48      48       --         6.306 au  C             1.00      5 S               2
                        (     171.595 eV)
    49      49       --        27.672 au  C             1.00      6 S               2
                        (     752.985 eV)
    50      50       --       171.385 au  C             1.00      7 S               2
                        (    4663.635 eV)
    51      51      0.667      -0.174 au  C             1.00      1 P:x             2
                        (      -4.723 eV)
    52      52       --         0.168 au  C             1.00      2 P:x             2
                        (       4.559 eV)
    53      53       --         1.213 au  C             1.00      3 P:x             2
                        (      33.008 eV)
    54      54       --        10.182 au  C             1.00      4 P:x             2
                        (     277.061 eV)
    55      55      0.667      -0.174 au  C             1.00      1 P:y             2
                        (      -4.723 eV)
    56      56       --         0.168 au  C             1.00      2 P:y             2
                        (       4.559 eV)
    57      57       --         1.213 au  C             1.00      3 P:y             2
                        (      33.008 eV)
    58      58       --        10.182 au  C             1.00      4 P:y             2
                        (     277.061 eV)
    59      59      0.667      -0.174 au  C             1.00      1 P:z             2
                        (      -4.723 eV)
    60      60       --         0.168 au  C             1.00      2 P:z             2
                        (       4.559 eV)
    61      61       --         1.213 au  C             1.00      3 P:z             2
                        (      33.008 eV)
    62      62       --        10.182 au  C             1.00      4 P:z             2
                        (     277.061 eV)
    63      63       --         0.522 au  C             1.00      1 D:z2            2
                        (      14.191 eV)
    64      64       --         2.555 au  C             1.00      2 D:z2            2
                        (      69.529 eV)
    65      65       --         0.522 au  C             1.00      1 D:x2-y2         2
                        (      14.191 eV)
    66      66       --         2.555 au  C             1.00      2 D:x2-y2         2
                        (      69.529 eV)
    67      67       --         0.522 au  C             1.00      1 D:xy            2
                        (      14.191 eV)
    68      68       --         2.555 au  C             1.00      2 D:xy            2
                        (      69.529 eV)
    69      69       --         0.522 au  C             1.00      1 D:xz            2
                        (      14.191 eV)
    70      70       --         2.555 au  C             1.00      2 D:xz            2
                        (      69.529 eV)
    71      71       --         0.522 au  C             1.00      1 D:yz            2
                        (      14.191 eV)
    72      72       --         2.555 au  C             1.00      2 D:yz            2
                        (      69.529 eV)
    73      73       --         1.340 au  C             1.00      1 F:z3            2
                        (      36.459 eV)
    74      74       --         7.104 au  C             1.00      2 F:z3            2
                        (     193.318 eV)
    75      75       --         1.340 au  C             1.00      1 F:z             2
                        (      36.459 eV)
    76      76       --         7.104 au  C             1.00      2 F:z             2
                        (     193.318 eV)
    77      77       --         1.340 au  C             1.00      1 F:xyz           2
                        (      36.459 eV)
    78      78       --         7.104 au  C             1.00      2 F:xyz           2
                        (     193.318 eV)
    79      79       --         1.340 au  C             1.00      1 F:z2x           2
                        (      36.459 eV)
    80      80       --         7.104 au  C             1.00      2 F:z2x           2
                        (     193.318 eV)
    81      81       --         1.340 au  C             1.00      1 F:z2y           2
                        (      36.459 eV)
    82      82       --         7.104 au  C             1.00      2 F:z2y           2
                        (     193.318 eV)
    83      83       --         1.340 au  C             1.00      1 F:x             2
                        (      36.459 eV)
    84      84       --         7.104 au  C             1.00      2 F:x             2
                        (     193.318 eV)
    85      85       --         1.340 au  C             1.00      1 F:y             2
                        (      36.459 eV)
    86      86       --         7.104 au  C             1.00      2 F:y             2
                        (     193.318 eV)
    87      87      2.000     -10.743 au  C             1.00      1 S               3
                        (    -292.319 eV)
    88      88      2.000      -0.646 au  C             1.00      2 S               3
                        (     -17.589 eV)
    89      89       --         0.170 au  C             1.00      3 S               3
                        (       4.630 eV)
    90      90       --         1.324 au  C             1.00      4 S               3
                        (      36.026 eV)
    91      91       --         6.306 au  C             1.00      5 S               3
                        (     171.595 eV)
    92      92       --        27.672 au  C             1.00      6 S               3
                        (     752.985 eV)
    93      93       --       171.385 au  C             1.00      7 S               3
                        (    4663.635 eV)
    94      94      0.667      -0.174 au  C             1.00      1 P:x             3
                        (      -4.723 eV)
    95      95       --         0.168 au  C             1.00      2 P:x             3
                        (       4.559 eV)
    96      96       --         1.213 au  C             1.00      3 P:x             3
                        (      33.008 eV)
    97      97       --        10.182 au  C             1.00      4 P:x             3
                        (     277.061 eV)
    98      98      0.667      -0.174 au  C             1.00      1 P:y             3
                        (      -4.723 eV)
    99      99       --         0.168 au  C             1.00      2 P:y             3
                        (       4.559 eV)
   100     100       --         1.213 au  C             1.00      3 P:y             3
                        (      33.008 eV)
   101     101       --        10.182 au  C             1.00      4 P:y             3
                        (     277.061 eV)
   102     102      0.667      -0.174 au  C             1.00      1 P:z             3
                        (      -4.723 eV)
   103     103       --         0.168 au  C             1.00      2 P:z             3
                        (       4.559 eV)
   104     104       --         1.213 au  C             1.00      3 P:z             3
                        (      33.008 eV)
   105     105       --        10.182 au  C             1.00      4 P:z             3
                        (     277.061 eV)
   106     106       --         0.522 au  C             1.00      1 D:z2            3
                        (      14.191 eV)
   107     107       --         2.555 au  C             1.00      2 D:z2            3
                        (      69.529 eV)
   108     108       --         0.522 au  C             1.00      1 D:x2-y2         3
                        (      14.191 eV)
   109     109       --         2.555 au  C             1.00      2 D:x2-y2         3
                        (      69.529 eV)
   110     110       --         0.522 au  C             1.00      1 D:xy            3
                        (      14.191 eV)
   111     111       --         2.555 au  C             1.00      2 D:xy            3
                        (      69.529 eV)
   112     112       --         0.522 au  C             1.00      1 D:xz            3
                        (      14.191 eV)
   113     113       --         2.555 au  C             1.00      2 D:xz            3
                        (      69.529 eV)
   114     114       --         0.522 au  C             1.00      1 D:yz            3
                        (      14.191 eV)
   115     115       --         2.555 au  C             1.00      2 D:yz            3
                        (      69.529 eV)
   116     116       --         1.340 au  C             1.00      1 F:z3            3
                        (      36.459 eV)
   117     117       --         7.104 au  C             1.00      2 F:z3            3
                        (     193.318 eV)
   118     118       --         1.340 au  C             1.00      1 F:z             3
                        (      36.459 eV)
   119     119       --         7.104 au  C             1.00      2 F:z             3
                        (     193.318 eV)
   120     120       --         1.340 au  C             1.00      1 F:xyz           3
                        (      36.459 eV)
   121     121       --         7.104 au  C             1.00      2 F:xyz           3
                        (     193.318 eV)
   122     122       --         1.340 au  C             1.00      1 F:z2x           3
                        (      36.459 eV)
   123     123       --         7.104 au  C             1.00      2 F:z2x           3
                        (     193.318 eV)
   124     124       --         1.340 au  C             1.00      1 F:z2y           3
                        (      36.459 eV)
   125     125       --         7.104 au  C             1.00      2 F:z2y           3
                        (     193.318 eV)
   126     126       --         1.340 au  C             1.00      1 F:x             3
                        (      36.459 eV)
   127     127       --         7.104 au  C             1.00      2 F:x             3
                        (     193.318 eV)
   128     128       --         1.340 au  C             1.00      1 F:y             3
                        (      36.459 eV)
   129     129       --         7.104 au  C             1.00      2 F:y             3
                        (     193.318 eV)
   130     130      2.000     -10.743 au  C             1.00      1 S               4
                        (    -292.319 eV)
   131     131      2.000      -0.646 au  C             1.00      2 S               4
                        (     -17.589 eV)
   132     132       --         0.170 au  C             1.00      3 S               4
                        (       4.630 eV)
   133     133       --         1.324 au  C             1.00      4 S               4
                        (      36.026 eV)
   134     134       --         6.306 au  C             1.00      5 S               4
                        (     171.595 eV)
   135     135       --        27.672 au  C             1.00      6 S               4
                        (     752.985 eV)
   136     136       --       171.385 au  C             1.00      7 S               4
                        (    4663.635 eV)
   137     137      0.667      -0.174 au  C             1.00      1 P:x             4
                        (      -4.723 eV)
   138     138       --         0.168 au  C             1.00      2 P:x             4
                        (       4.559 eV)
   139     139       --         1.213 au  C             1.00      3 P:x             4
                        (      33.008 eV)
   140     140       --        10.182 au  C             1.00      4 P:x             4
                        (     277.061 eV)
   141     141      0.667      -0.174 au  C             1.00      1 P:y             4
                        (      -4.723 eV)
   142     142       --         0.168 au  C             1.00      2 P:y             4
                        (       4.559 eV)
   143     143       --         1.213 au  C             1.00      3 P:y             4
                        (      33.008 eV)
   144     144       --        10.182 au  C             1.00      4 P:y             4
                        (     277.061 eV)
   145     145      0.667      -0.174 au  C             1.00      1 P:z             4
                        (      -4.723 eV)
   146     146       --         0.168 au  C             1.00      2 P:z             4
                        (       4.559 eV)
   147     147       --         1.213 au  C             1.00      3 P:z             4
                        (      33.008 eV)
   148     148       --        10.182 au  C             1.00      4 P:z             4
                        (     277.061 eV)
   149     149       --         0.522 au  C             1.00      1 D:z2            4
                        (      14.191 eV)
   150     150       --         2.555 au  C             1.00      2 D:z2            4
                        (      69.529 eV)
   151     151       --         0.522 au  C             1.00      1 D:x2-y2         4
                        (      14.191 eV)
   152     152       --         2.555 au  C             1.00      2 D:x2-y2         4
                        (      69.529 eV)
   153     153       --         0.522 au  C             1.00      1 D:xy            4
                        (      14.191 eV)
   154     154       --         2.555 au  C             1.00      2 D:xy            4
                        (      69.529 eV)
   155     155       --         0.522 au  C             1.00      1 D:xz            4
                        (      14.191 eV)
   156     156       --         2.555 au  C             1.00      2 D:xz            4
                        (      69.529 eV)
   157     157       --         0.522 au  C             1.00      1 D:yz            4
                        (      14.191 eV)
   158     158       --         2.555 au  C             1.00      2 D:yz            4
                        (      69.529 eV)
   159     159       --         1.340 au  C             1.00      1 F:z3            4
                        (      36.459 eV)
   160     160       --         7.104 au  C             1.00      2 F:z3            4
                        (     193.318 eV)
   161     161       --         1.340 au  C             1.00      1 F:z             4
                        (      36.459 eV)
   162     162       --         7.104 au  C             1.00      2 F:z             4
                        (     193.318 eV)
   163     163       --         1.340 au  C             1.00      1 F:xyz           4
                        (      36.459 eV)
   164     164       --         7.104 au  C             1.00      2 F:xyz           4
                        (     193.318 eV)
   165     165       --         1.340 au  C             1.00      1 F:z2x           4
                        (      36.459 eV)
   166     166       --         7.104 au  C             1.00      2 F:z2x           4
                        (     193.318 eV)
   167     167       --         1.340 au  C             1.00      1 F:z2y           4
                        (      36.459 eV)
   168     168       --         7.104 au  C             1.00      2 F:z2y           4
                        (     193.318 eV)
   169     169       --         1.340 au  C             1.00      1 F:x             4
                        (      36.459 eV)
   170     170       --         7.104 au  C             1.00      2 F:x             4
                        (     193.318 eV)
   171     171       --         1.340 au  C             1.00      1 F:y             4
                        (      36.459 eV)
   172     172       --         7.104 au  C             1.00      2 F:y             4
                        (     193.318 eV)
   173     173      2.000     -10.743 au  C             1.00      1 S               5
                        (    -292.319 eV)
   174     174      2.000      -0.646 au  C             1.00      2 S               5
                        (     -17.589 eV)
   175     175       --         0.170 au  C             1.00      3 S               5
                        (       4.630 eV)
   176     176       --         1.324 au  C             1.00      4 S               5
                        (      36.026 eV)
   177     177       --         6.306 au  C             1.00      5 S               5
                        (     171.595 eV)
   178     178       --        27.672 au  C             1.00      6 S               5
                        (     752.985 eV)
   179     179       --       171.385 au  C             1.00      7 S               5
                        (    4663.635 eV)
   180     180      0.667      -0.174 au  C             1.00      1 P:x             5
                        (      -4.723 eV)
   181     181       --         0.168 au  C             1.00      2 P:x             5
                        (       4.559 eV)
   182     182       --         1.213 au  C             1.00      3 P:x             5
                        (      33.008 eV)
   183     183       --        10.182 au  C             1.00      4 P:x             5
                        (     277.061 eV)
   184     184      0.667      -0.174 au  C             1.00      1 P:y             5
                        (      -4.723 eV)
   185     185       --         0.168 au  C             1.00      2 P:y             5
                        (       4.559 eV)
   186     186       --         1.213 au  C             1.00      3 P:y             5
                        (      33.008 eV)
   187     187       --        10.182 au  C             1.00      4 P:y             5
                        (     277.061 eV)
   188     188      0.667      -0.174 au  C             1.00      1 P:z             5
                        (      -4.723 eV)
   189     189       --         0.168 au  C             1.00      2 P:z             5
                        (       4.559 eV)
   190     190       --         1.213 au  C             1.00      3 P:z             5
                        (      33.008 eV)
   191     191       --        10.182 au  C             1.00      4 P:z             5
                        (     277.061 eV)
   192     192       --         0.522 au  C             1.00      1 D:z2            5
                        (      14.191 eV)
   193     193       --         2.555 au  C             1.00      2 D:z2            5
                        (      69.529 eV)
   194     194       --         0.522 au  C             1.00      1 D:x2-y2         5
                        (      14.191 eV)
   195     195       --         2.555 au  C             1.00      2 D:x2-y2         5
                        (      69.529 eV)
   196     196       --         0.522 au  C             1.00      1 D:xy            5
                        (      14.191 eV)
   197     197       --         2.555 au  C             1.00      2 D:xy            5
                        (      69.529 eV)
   198     198       --         0.522 au  C             1.00      1 D:xz            5
                        (      14.191 eV)
   199     199       --         2.555 au  C             1.00      2 D:xz            5
                        (      69.529 eV)
   200     200       --         0.522 au  C             1.00      1 D:yz            5
                        (      14.191 eV)
   201     201       --         2.555 au  C             1.00      2 D:yz            5
                        (      69.529 eV)
   202     202       --         1.340 au  C             1.00      1 F:z3            5
                        (      36.459 eV)
   203     203       --         7.104 au  C             1.00      2 F:z3            5
                        (     193.318 eV)
   204     204       --         1.340 au  C             1.00      1 F:z             5
                        (      36.459 eV)
   205     205       --         7.104 au  C             1.00      2 F:z             5
                        (     193.318 eV)
   206     206       --         1.340 au  C             1.00      1 F:xyz           5
                        (      36.459 eV)
   207     207       --         7.104 au  C             1.00      2 F:xyz           5
                        (     193.318 eV)
   208     208       --         1.340 au  C             1.00      1 F:z2x           5
                        (      36.459 eV)
   209     209       --         7.104 au  C             1.00      2 F:z2x           5
                        (     193.318 eV)
   210     210       --         1.340 au  C             1.00      1 F:z2y           5
                        (      36.459 eV)
   211     211       --         7.104 au  C             1.00      2 F:z2y           5
                        (     193.318 eV)
   212     212       --         1.340 au  C             1.00      1 F:x             5
                        (      36.459 eV)
   213     213       --         7.104 au  C             1.00      2 F:x             5
                        (     193.318 eV)
   214     214       --         1.340 au  C             1.00      1 F:y             5
                        (      36.459 eV)
   215     215       --         7.104 au  C             1.00      2 F:y             5
                        (     193.318 eV)
   216     216      2.000     -10.743 au  C             1.00      1 S               6
                        (    -292.319 eV)
   217     217      2.000      -0.646 au  C             1.00      2 S               6
                        (     -17.589 eV)
   218     218       --         0.170 au  C             1.00      3 S               6
                        (       4.630 eV)
   219     219       --         1.324 au  C             1.00      4 S               6
                        (      36.026 eV)
   220     220       --         6.306 au  C             1.00      5 S               6
                        (     171.595 eV)
   221     221       --        27.672 au  C             1.00      6 S               6
                        (     752.985 eV)
   222     222       --       171.385 au  C             1.00      7 S               6
                        (    4663.635 eV)
   223     223      0.667      -0.174 au  C             1.00      1 P:x             6
                        (      -4.723 eV)
   224     224       --         0.168 au  C             1.00      2 P:x             6
                        (       4.559 eV)
   225     225       --         1.213 au  C             1.00      3 P:x             6
                        (      33.008 eV)
   226     226       --        10.182 au  C             1.00      4 P:x             6
                        (     277.061 eV)
   227     227      0.667      -0.174 au  C             1.00      1 P:y             6
                        (      -4.723 eV)
   228     228       --         0.168 au  C             1.00      2 P:y             6
                        (       4.559 eV)
   229     229       --         1.213 au  C             1.00      3 P:y             6
                        (      33.008 eV)
   230     230       --        10.182 au  C             1.00      4 P:y             6
                        (     277.061 eV)
   231     231      0.667      -0.174 au  C             1.00      1 P:z             6
                        (      -4.723 eV)
   232     232       --         0.168 au  C             1.00      2 P:z             6
                        (       4.559 eV)
   233     233       --         1.213 au  C             1.00      3 P:z             6
                        (      33.008 eV)
   234     234       --        10.182 au  C             1.00      4 P:z             6
                        (     277.061 eV)
   235     235       --         0.522 au  C             1.00      1 D:z2            6
                        (      14.191 eV)
   236     236       --         2.555 au  C             1.00      2 D:z2            6
                        (      69.529 eV)
   237     237       --         0.522 au  C             1.00      1 D:x2-y2         6
                        (      14.191 eV)
   238     238       --         2.555 au  C             1.00      2 D:x2-y2         6
                        (      69.529 eV)
   239     239       --         0.522 au  C             1.00      1 D:xy            6
                        (      14.191 eV)
   240     240       --         2.555 au  C             1.00      2 D:xy            6
                        (      69.529 eV)
   241     241       --         0.522 au  C             1.00      1 D:xz            6
                        (      14.191 eV)
   242     242       --         2.555 au  C             1.00      2 D:xz            6
                        (      69.529 eV)
   243     243       --         0.522 au  C             1.00      1 D:yz            6
                        (      14.191 eV)
   244     244       --         2.555 au  C             1.00      2 D:yz            6
                        (      69.529 eV)
   245     245       --         1.340 au  C             1.00      1 F:z3            6
                        (      36.459 eV)
   246     246       --         7.104 au  C             1.00      2 F:z3            6
                        (     193.318 eV)
   247     247       --         1.340 au  C             1.00      1 F:z             6
                        (      36.459 eV)
   248     248       --         7.104 au  C             1.00      2 F:z             6
                        (     193.318 eV)
   249     249       --         1.340 au  C             1.00      1 F:xyz           6
                        (      36.459 eV)
   250     250       --         7.104 au  C             1.00      2 F:xyz           6
                        (     193.318 eV)
   251     251       --         1.340 au  C             1.00      1 F:z2x           6
                        (      36.459 eV)
   252     252       --         7.104 au  C             1.00      2 F:z2x           6
                        (     193.318 eV)
   253     253       --         1.340 au  C             1.00      1 F:z2y           6
                        (      36.459 eV)
   254     254       --         7.104 au  C             1.00      2 F:z2y           6
                        (     193.318 eV)
   255     255       --         1.340 au  C             1.00      1 F:x             6
                        (      36.459 eV)
   256     256       --         7.104 au  C             1.00      2 F:x             6
                        (     193.318 eV)
   257     257       --         1.340 au  C             1.00      1 F:y             6
                        (      36.459 eV)
   258     258       --         7.104 au  C             1.00      2 F:y             6
                        (     193.318 eV)
   259     259      2.000     -10.743 au  C             1.00      1 S               7
                        (    -292.319 eV)
   260     260      2.000      -0.646 au  C             1.00      2 S               7
                        (     -17.589 eV)
   261     261       --         0.170 au  C             1.00      3 S               7
                        (       4.630 eV)
   262     262       --         1.324 au  C             1.00      4 S               7
                        (      36.026 eV)
   263     263       --         6.306 au  C             1.00      5 S               7
                        (     171.595 eV)
   264     264       --        27.672 au  C             1.00      6 S               7
                        (     752.985 eV)
   265     265       --       171.385 au  C             1.00      7 S               7
                        (    4663.635 eV)
   266     266      0.667      -0.174 au  C             1.00      1 P:x             7
                        (      -4.723 eV)
   267     267       --         0.168 au  C             1.00      2 P:x             7
                        (       4.559 eV)
   268     268       --         1.213 au  C             1.00      3 P:x             7
                        (      33.008 eV)
   269     269       --        10.182 au  C             1.00      4 P:x             7
                        (     277.061 eV)
   270     270      0.667      -0.174 au  C             1.00      1 P:y             7
                        (      -4.723 eV)
   271     271       --         0.168 au  C             1.00      2 P:y             7
                        (       4.559 eV)
   272     272       --         1.213 au  C             1.00      3 P:y             7
                        (      33.008 eV)
   273     273       --        10.182 au  C             1.00      4 P:y             7
                        (     277.061 eV)
   274     274      0.667      -0.174 au  C             1.00      1 P:z             7
                        (      -4.723 eV)
   275     275       --         0.168 au  C             1.00      2 P:z             7
                        (       4.559 eV)
   276     276       --         1.213 au  C             1.00      3 P:z             7
                        (      33.008 eV)
   277     277       --        10.182 au  C             1.00      4 P:z             7
                        (     277.061 eV)
   278     278       --         0.522 au  C             1.00      1 D:z2            7
                        (      14.191 eV)
   279     279       --         2.555 au  C             1.00      2 D:z2            7
                        (      69.529 eV)
   280     280       --         0.522 au  C             1.00      1 D:x2-y2         7
                        (      14.191 eV)
   281     281       --         2.555 au  C             1.00      2 D:x2-y2         7
                        (      69.529 eV)
   282     282       --         0.522 au  C             1.00      1 D:xy            7
                        (      14.191 eV)
   283     283       --         2.555 au  C             1.00      2 D:xy            7
                        (      69.529 eV)
   284     284       --         0.522 au  C             1.00      1 D:xz            7
                        (      14.191 eV)
   285     285       --         2.555 au  C             1.00      2 D:xz            7
                        (      69.529 eV)
   286     286       --         0.522 au  C             1.00      1 D:yz            7
                        (      14.191 eV)
   287     287       --         2.555 au  C             1.00      2 D:yz            7
                        (      69.529 eV)
   288     288       --         1.340 au  C             1.00      1 F:z3            7
                        (      36.459 eV)
   289     289       --         7.104 au  C             1.00      2 F:z3            7
                        (     193.318 eV)
   290     290       --         1.340 au  C             1.00      1 F:z             7
                        (      36.459 eV)
   291     291       --         7.104 au  C             1.00      2 F:z             7
                        (     193.318 eV)
   292     292       --         1.340 au  C             1.00      1 F:xyz           7
                        (      36.459 eV)
   293     293       --         7.104 au  C             1.00      2 F:xyz           7
                        (     193.318 eV)
   294     294       --         1.340 au  C             1.00      1 F:z2x           7
                        (      36.459 eV)
   295     295       --         7.104 au  C             1.00      2 F:z2x           7
                        (     193.318 eV)
   296     296       --         1.340 au  C             1.00      1 F:z2y           7
                        (      36.459 eV)
   297     297       --         7.104 au  C             1.00      2 F:z2y           7
                        (     193.318 eV)
   298     298       --         1.340 au  C             1.00      1 F:x             7
                        (      36.459 eV)
   299     299       --         7.104 au  C             1.00      2 F:x             7
                        (     193.318 eV)
   300     300       --         1.340 au  C             1.00      1 F:y             7
                        (      36.459 eV)
   301     301       --         7.104 au  C             1.00      2 F:y             7
                        (     193.318 eV)
   302     302      2.000     -10.743 au  C             1.00      1 S               8
                        (    -292.319 eV)
   303     303      2.000      -0.646 au  C             1.00      2 S               8
                        (     -17.589 eV)
   304     304       --         0.170 au  C             1.00      3 S               8
                        (       4.630 eV)
   305     305       --         1.324 au  C             1.00      4 S               8
                        (      36.026 eV)
   306     306       --         6.306 au  C             1.00      5 S               8
                        (     171.595 eV)
   307     307       --        27.672 au  C             1.00      6 S               8
                        (     752.985 eV)
   308     308       --       171.385 au  C             1.00      7 S               8
                        (    4663.635 eV)
   309     309      0.667      -0.174 au  C             1.00      1 P:x             8
                        (      -4.723 eV)
   310     310       --         0.168 au  C             1.00      2 P:x             8
                        (       4.559 eV)
   311     311       --         1.213 au  C             1.00      3 P:x             8
                        (      33.008 eV)
   312     312       --        10.182 au  C             1.00      4 P:x             8
                        (     277.061 eV)
   313     313      0.667      -0.174 au  C             1.00      1 P:y             8
                        (      -4.723 eV)
   314     314       --         0.168 au  C             1.00      2 P:y             8
                        (       4.559 eV)
   315     315       --         1.213 au  C             1.00      3 P:y             8
                        (      33.008 eV)
   316     316       --        10.182 au  C             1.00      4 P:y             8
                        (     277.061 eV)
   317     317      0.667      -0.174 au  C             1.00      1 P:z             8
                        (      -4.723 eV)
   318     318       --         0.168 au  C             1.00      2 P:z             8
                        (       4.559 eV)
   319     319       --         1.213 au  C             1.00      3 P:z             8
                        (      33.008 eV)
   320     320       --        10.182 au  C             1.00      4 P:z             8
                        (     277.061 eV)
   321     321       --         0.522 au  C             1.00      1 D:z2            8
                        (      14.191 eV)
   322     322       --         2.555 au  C             1.00      2 D:z2            8
                        (      69.529 eV)
   323     323       --         0.522 au  C             1.00      1 D:x2-y2         8
                        (      14.191 eV)
   324     324       --         2.555 au  C             1.00      2 D:x2-y2         8
                        (      69.529 eV)
   325     325       --         0.522 au  C             1.00      1 D:xy            8
                        (      14.191 eV)
   326     326       --         2.555 au  C             1.00      2 D:xy            8
                        (      69.529 eV)
   327     327       --         0.522 au  C             1.00      1 D:xz            8
                        (      14.191 eV)
   328     328       --         2.555 au  C             1.00      2 D:xz            8
                        (      69.529 eV)
   329     329       --         0.522 au  C             1.00      1 D:yz            8
                        (      14.191 eV)
   330     330       --         2.555 au  C             1.00      2 D:yz            8
                        (      69.529 eV)
   331     331       --         1.340 au  C             1.00      1 F:z3            8
                        (      36.459 eV)
   332     332       --         7.104 au  C             1.00      2 F:z3            8
                        (     193.318 eV)
   333     333       --         1.340 au  C             1.00      1 F:z             8
                        (      36.459 eV)
   334     334       --         7.104 au  C             1.00      2 F:z             8
                        (     193.318 eV)
   335     335       --         1.340 au  C             1.00      1 F:xyz           8
                        (      36.459 eV)
   336     336       --         7.104 au  C             1.00      2 F:xyz           8
                        (     193.318 eV)
   337     337       --         1.340 au  C             1.00      1 F:z2x           8
                        (      36.459 eV)
   338     338       --         7.104 au  C             1.00      2 F:z2x           8
                        (     193.318 eV)
   339     339       --         1.340 au  C             1.00      1 F:z2y           8
                        (      36.459 eV)
   340     340       --         7.104 au  C             1.00      2 F:z2y           8
                        (     193.318 eV)
   341     341       --         1.340 au  C             1.00      1 F:x             8
                        (      36.459 eV)
   342     342       --         7.104 au  C             1.00      2 F:x             8
                        (     193.318 eV)
   343     343       --         1.340 au  C             1.00      1 F:y             8
                        (      36.459 eV)
   344     344       --         7.104 au  C             1.00      2 F:y             8
                        (     193.318 eV)
   345     345      1.000      -0.241 au  H             1.00      1 S               9
                        (      -6.548 eV)
   346     346       --         0.078 au  H             1.00      2 S               9
                        (       2.112 eV)
   347     347       --         0.548 au  H             1.00      3 S               9
                        (      14.899 eV)
   348     348       --         2.335 au  H             1.00      4 S               9
                        (      63.530 eV)
   349     349       --        14.506 au  H             1.00      5 S               9
                        (     394.723 eV)
   350     350       --         0.223 au  H             1.00      1 P:x             9
                        (       6.079 eV)
   351     351       --         1.948 au  H             1.00      2 P:x             9
                        (      53.007 eV)
   352     352       --         0.223 au  H             1.00      1 P:y             9
                        (       6.079 eV)
   353     353       --         1.948 au  H             1.00      2 P:y             9
                        (      53.007 eV)
   354     354       --         0.223 au  H             1.00      1 P:z             9
                        (       6.079 eV)
   355     355       --         1.948 au  H             1.00      2 P:z             9
                        (      53.007 eV)
   356     356       --         0.685 au  H             1.00      1 D:z2            9
                        (      18.628 eV)
   357     357       --         3.551 au  H             1.00      2 D:z2            9
                        (      96.627 eV)
   358     358       --         0.685 au  H             1.00      1 D:x2-y2         9
                        (      18.628 eV)
   359     359       --         3.551 au  H             1.00      2 D:x2-y2         9
                        (      96.627 eV)
   360     360       --         0.685 au  H             1.00      1 D:xy            9
                        (      18.628 eV)
   361     361       --         3.551 au  H             1.00      2 D:xy            9
                        (      96.627 eV)
   362     362       --         0.685 au  H             1.00      1 D:xz            9
                        (      18.628 eV)
   363     363       --         3.551 au  H             1.00      2 D:xz            9
                        (      96.627 eV)
   364     364       --         0.685 au  H             1.00      1 D:yz            9
                        (      18.628 eV)
   365     365       --         3.551 au  H             1.00      2 D:yz            9
                        (      96.627 eV)
   366     366      1.000      -0.241 au  H             1.00      1 S              10
                        (      -6.548 eV)
   367     367       --         0.078 au  H             1.00      2 S              10
                        (       2.112 eV)
   368     368       --         0.548 au  H             1.00      3 S              10
                        (      14.899 eV)
   369     369       --         2.335 au  H             1.00      4 S              10
                        (      63.530 eV)
   370     370       --        14.506 au  H             1.00      5 S              10
                        (     394.723 eV)
   371     371       --         0.223 au  H             1.00      1 P:x            10
                        (       6.079 eV)
   372     372       --         1.948 au  H             1.00      2 P:x            10
                        (      53.007 eV)
   373     373       --         0.223 au  H             1.00      1 P:y            10
                        (       6.079 eV)
   374     374       --         1.948 au  H             1.00      2 P:y            10
                        (      53.007 eV)
   375     375       --         0.223 au  H             1.00      1 P:z            10
                        (       6.079 eV)
   376     376       --         1.948 au  H             1.00      2 P:z            10
                        (      53.007 eV)
   377     377       --         0.685 au  H             1.00      1 D:z2           10
                        (      18.628 eV)
   378     378       --         3.551 au  H             1.00      2 D:z2           10
                        (      96.627 eV)
   379     379       --         0.685 au  H             1.00      1 D:x2-y2        10
                        (      18.628 eV)
   380     380       --         3.551 au  H             1.00      2 D:x2-y2        10
                        (      96.627 eV)
   381     381       --         0.685 au  H             1.00      1 D:xy           10
                        (      18.628 eV)
   382     382       --         3.551 au  H             1.00      2 D:xy           10
                        (      96.627 eV)
   383     383       --         0.685 au  H             1.00      1 D:xz           10
                        (      18.628 eV)
   384     384       --         3.551 au  H             1.00      2 D:xz           10
                        (      96.627 eV)
   385     385       --         0.685 au  H             1.00      1 D:yz           10
                        (      18.628 eV)
   386     386       --         3.551 au  H             1.00      2 D:yz           10
                        (      96.627 eV)
   387     387      1.000      -0.241 au  H             1.00      1 S              11
                        (      -6.548 eV)
   388     388       --         0.078 au  H             1.00      2 S              11
                        (       2.112 eV)
   389     389       --         0.548 au  H             1.00      3 S              11
                        (      14.899 eV)
   390     390       --         2.335 au  H             1.00      4 S              11
                        (      63.530 eV)
   391     391       --        14.506 au  H             1.00      5 S              11
                        (     394.723 eV)
   392     392       --         0.223 au  H             1.00      1 P:x            11
                        (       6.079 eV)
   393     393       --         1.948 au  H             1.00      2 P:x            11
                        (      53.007 eV)
   394     394       --         0.223 au  H             1.00      1 P:y            11
                        (       6.079 eV)
   395     395       --         1.948 au  H             1.00      2 P:y            11
                        (      53.007 eV)
   396     396       --         0.223 au  H             1.00      1 P:z            11
                        (       6.079 eV)
   397     397       --         1.948 au  H             1.00      2 P:z            11
                        (      53.007 eV)
   398     398       --         0.685 au  H             1.00      1 D:z2           11
                        (      18.628 eV)
   399     399       --         3.551 au  H             1.00      2 D:z2           11
                        (      96.627 eV)
   400     400       --         0.685 au  H             1.00      1 D:x2-y2        11
                        (      18.628 eV)
   401     401       --         3.551 au  H             1.00      2 D:x2-y2        11
                        (      96.627 eV)
   402     402       --         0.685 au  H             1.00      1 D:xy           11
                        (      18.628 eV)
   403     403       --         3.551 au  H             1.00      2 D:xy           11
                        (      96.627 eV)
   404     404       --         0.685 au  H             1.00      1 D:xz           11
                        (      18.628 eV)
   405     405       --         3.551 au  H             1.00      2 D:xz           11
                        (      96.627 eV)
   406     406       --         0.685 au  H             1.00      1 D:yz           11
                        (      18.628 eV)
   407     407       --         3.551 au  H             1.00      2 D:yz           11
                        (      96.627 eV)
   408     408      1.000      -0.241 au  H             1.00      1 S              12
                        (      -6.548 eV)
   409     409       --         0.078 au  H             1.00      2 S              12
                        (       2.112 eV)
   410     410       --         0.548 au  H             1.00      3 S              12
                        (      14.899 eV)
   411     411       --         2.335 au  H             1.00      4 S              12
                        (      63.530 eV)
   412     412       --        14.506 au  H             1.00      5 S              12
                        (     394.723 eV)
   413     413       --         0.223 au  H             1.00      1 P:x            12
                        (       6.079 eV)
   414     414       --         1.948 au  H             1.00      2 P:x            12
                        (      53.007 eV)
   415     415       --         0.223 au  H             1.00      1 P:y            12
                        (       6.079 eV)
   416     416       --         1.948 au  H             1.00      2 P:y            12
                        (      53.007 eV)
   417     417       --         0.223 au  H             1.00      1 P:z            12
                        (       6.079 eV)
   418     418       --         1.948 au  H             1.00      2 P:z            12
                        (      53.007 eV)
   419     419       --         0.685 au  H             1.00      1 D:z2           12
                        (      18.628 eV)
   420     420       --         3.551 au  H             1.00      2 D:z2           12
                        (      96.627 eV)
   421     421       --         0.685 au  H             1.00      1 D:x2-y2        12
                        (      18.628 eV)
   422     422       --         3.551 au  H             1.00      2 D:x2-y2        12
                        (      96.627 eV)
   423     423       --         0.685 au  H             1.00      1 D:xy           12
                        (      18.628 eV)
   424     424       --         3.551 au  H             1.00      2 D:xy           12
                        (      96.627 eV)
   425     425       --         0.685 au  H             1.00      1 D:xz           12
                        (      18.628 eV)
   426     426       --         3.551 au  H             1.00      2 D:xz           12
                        (      96.627 eV)
   427     427       --         0.685 au  H             1.00      1 D:yz           12
                        (      18.628 eV)
   428     428       --         3.551 au  H             1.00      2 D:yz           12
                        (      96.627 eV)
   429     429      1.000      -0.241 au  H             1.00      1 S              13
                        (      -6.548 eV)
   430     430       --         0.078 au  H             1.00      2 S              13
                        (       2.112 eV)
   431     431       --         0.548 au  H             1.00      3 S              13
                        (      14.899 eV)
   432     432       --         2.335 au  H             1.00      4 S              13
                        (      63.530 eV)
   433     433       --        14.506 au  H             1.00      5 S              13
                        (     394.723 eV)
   434     434       --         0.223 au  H             1.00      1 P:x            13
                        (       6.079 eV)
   435     435       --         1.948 au  H             1.00      2 P:x            13
                        (      53.007 eV)
   436     436       --         0.223 au  H             1.00      1 P:y            13
                        (       6.079 eV)
   437     437       --         1.948 au  H             1.00      2 P:y            13
                        (      53.007 eV)
   438     438       --         0.223 au  H             1.00      1 P:z            13
                        (       6.079 eV)
   439     439       --         1.948 au  H             1.00      2 P:z            13
                        (      53.007 eV)
   440     440       --         0.685 au  H             1.00      1 D:z2           13
                        (      18.628 eV)
   441     441       --         3.551 au  H             1.00      2 D:z2           13
                        (      96.627 eV)
   442     442       --         0.685 au  H             1.00      1 D:x2-y2        13
                        (      18.628 eV)
   443     443       --         3.551 au  H             1.00      2 D:x2-y2        13
                        (      96.627 eV)
   444     444       --         0.685 au  H             1.00      1 D:xy           13
                        (      18.628 eV)
   445     445       --         3.551 au  H             1.00      2 D:xy           13
                        (      96.627 eV)
   446     446       --         0.685 au  H             1.00      1 D:xz           13
                        (      18.628 eV)
   447     447       --         3.551 au  H             1.00      2 D:xz           13
                        (      96.627 eV)
   448     448       --         0.685 au  H             1.00      1 D:yz           13
                        (      18.628 eV)
   449     449       --         3.551 au  H             1.00      2 D:yz           13
                        (      96.627 eV)
   450     450      1.000      -0.241 au  H             1.00      1 S              14
                        (      -6.548 eV)
   451     451       --         0.078 au  H             1.00      2 S              14
                        (       2.112 eV)
   452     452       --         0.548 au  H             1.00      3 S              14
                        (      14.899 eV)
   453     453       --         2.335 au  H             1.00      4 S              14
                        (      63.530 eV)
   454     454       --        14.506 au  H             1.00      5 S              14
                        (     394.723 eV)
   455     455       --         0.223 au  H             1.00      1 P:x            14
                        (       6.079 eV)
   456     456       --         1.948 au  H             1.00      2 P:x            14
                        (      53.007 eV)
   457     457       --         0.223 au  H             1.00      1 P:y            14
                        (       6.079 eV)
   458     458       --         1.948 au  H             1.00      2 P:y            14
                        (      53.007 eV)
   459     459       --         0.223 au  H             1.00      1 P:z            14
                        (       6.079 eV)
   460     460       --         1.948 au  H             1.00      2 P:z            14
                        (      53.007 eV)
   461     461       --         0.685 au  H             1.00      1 D:z2           14
                        (      18.628 eV)
   462     462       --         3.551 au  H             1.00      2 D:z2           14
                        (      96.627 eV)
   463     463       --         0.685 au  H             1.00      1 D:x2-y2        14
                        (      18.628 eV)
   464     464       --         3.551 au  H             1.00      2 D:x2-y2        14
                        (      96.627 eV)
   465     465       --         0.685 au  H             1.00      1 D:xy           14
                        (      18.628 eV)
   466     466       --         3.551 au  H             1.00      2 D:xy           14
                        (      96.627 eV)
   467     467       --         0.685 au  H             1.00      1 D:xz           14
                        (      18.628 eV)
   468     468       --         3.551 au  H             1.00      2 D:xz           14
                        (      96.627 eV)
   469     469       --         0.685 au  H             1.00      1 D:yz           14
                        (      18.628 eV)
   470     470       --         3.551 au  H             1.00      2 D:yz           14
                        (      96.627 eV)
   471     471      1.000      -0.241 au  H             1.00      1 S              15
                        (      -6.548 eV)
   472     472       --         0.078 au  H             1.00      2 S              15
                        (       2.112 eV)
   473     473       --         0.548 au  H             1.00      3 S              15
                        (      14.899 eV)
   474     474       --         2.335 au  H             1.00      4 S              15
                        (      63.530 eV)
[...]
                                    8.06%     3 S              14.899  0.00    20 H
                                    7.76%     2 S             -17.589  2.00     6 C
                                    7.75%     2 S             -17.589  2.00     5 C
                                   -7.09%     1 P:z             6.079  0.00    11 H
                                   -7.08%     1 P:z             6.079  0.00    22 H
                                   -6.89%     2 P:z             4.559  0.00     3 C
                                   -6.88%     2 P:z             4.559  0.00     8 C
                                   -6.29%     2 S               2.112  0.00     9 H
                                   -6.26%     2 S               2.112  0.00    10 H
                                   -5.83%     1 P:y             6.079  0.00    17 H
                                   -5.82%     1 P:x             6.079  0.00    16 H
                                   -5.31%     1 P:z             6.079  0.00    13 H
                                   -5.30%     1 P:z             6.079  0.00    20 H
                                    4.55%     2 S               2.112  0.00    21 H
                                    4.55%     2 S               2.112  0.00    12 H
                                    4.29%     2 P:z             4.559  0.00     5 C
                                   -4.21%     3 P:z            33.008  0.00     5 C
                                   -4.20%     3 P:z            33.008  0.00     6 C
                                    4.19%     2 P:z             4.559  0.00     6 C
                                    4.05%     1 P:z            -4.723  0.67     8 C
                                    3.99%     1 P:z            -4.723  0.67     3 C
                                    3.79%     2 S               2.112  0.00    17 H
                                    3.78%     2 S               2.112  0.00    16 H
                                   -3.62%     1 P:y             6.079  0.00    16 H
                                   -3.56%     1 P:x             6.079  0.00    17 H
                                   -3.34%     3 P:x            33.008  0.00     8 C
                                   -3.33%     3 P:y            33.008  0.00     3 C
                                   -3.24%     1 P:z             6.079  0.00    18 H
                                   -3.22%     1 P:z             6.079  0.00    15 H
                                   -3.06%     1 S              -6.548  1.00    10 H
                                   -3.05%     1 S              -6.548  1.00     9 H
                                    3.02%     2 S               2.112  0.00    20 H
                                    3.00%     2 S               2.112  0.00    13 H
                                   -2.97%     1 D:z2           14.191  0.00     3 C
                                   -2.96%     1 D:z2           14.191  0.00     8 C
                                    2.92%     1 P:x            -4.723  0.67     3 C
                                   -2.89%     1 D:z2           14.191  0.00     7 C
                                   -2.88%     1 D:z2           14.191  0.00     4 C
                                    2.85%     1 P:y            -4.723  0.67     8 C
                                    2.77%     1 S              -6.548  1.00    14 H
                                   -2.76%     2 P:x             4.559  0.00     2 C
                                    2.75%     2 P:x             4.559  0.00     6 C
                                   -2.74%     2 P:y             4.559  0.00     1 C
                                    2.73%     1 S              -6.548  1.00    19 H
                                    2.69%     2 P:y             4.559  0.00     5 C
                                   -2.54%     1 P:z             6.079  0.00    14 H
                                   -2.53%     1 P:z             6.079  0.00    19 H
                                    2.40%     4 S              36.026  0.00     7 C
                                    2.40%     4 S              36.026  0.00     4 C
                                    2.40%     3 S              14.899  0.00    15 H
                                    2.39%     3 S              14.899  0.00    18 H
                                   -2.38%     2 P:y             4.559  0.00     2 C
                                   -2.37%     2 P:x             4.559  0.00     1 C
                                   -2.06%     3 S              14.899  0.00    22 H
                                   -2.06%     3 S              14.899  0.00    11 H
                                   -1.92%     3 P:z            33.008  0.00     7 C
                                   -1.91%     3 P:z            33.008  0.00     4 C
                                   -1.63%     1 P:y             6.079  0.00    13 H
                                   -1.62%     1 P:x             6.079  0.00    20 H
                                   -1.46%     2 S               2.112  0.00    19 H
                                   -1.44%     2 S               2.112  0.00    14 H
                                    1.43%     2 P:x             4.559  0.00     3 C
                                    1.39%     2 P:y             4.559  0.00     8 C
                                    1.25%     2 S               2.112  0.00    22 H
                                   -1.23%     3 S              14.899  0.00     9 H
                                    1.23%     2 S               2.112  0.00    11 H
                                   -1.22%     3 S              14.899  0.00    10 H
                                   -1.19%     4 S              63.530  0.00    13 H
                                   -1.18%     4 S              63.530  0.00    20 H
                                   -1.09%     4 S              63.530  0.00    17 H
                                   -1.09%     4 S              63.530  0.00    16 H
                                   -1.08%     2 P:z             4.559  0.00     4 C
                                    1.08%     2 S             -17.589  2.00     3 C
                                   -1.06%     2 P:z             4.559  0.00     7 C
                                    1.06%     2 S             -17.589  2.00     8 C
                                    1.05%     1 P:z            -4.723  0.67     2 C
                                    1.05%     1 P:x             6.079  0.00    13 H
                                    1.03%     1 P:y             6.079  0.00    20 H
                                    1.03%     1 P:z            -4.723  0.67     1 C
                                    1.02%     1 P:x            -4.723  0.67     4 C
       5.528  0.00    55 A        -35.62%     3 S               4.630  0.00     3 C
                                  -35.35%     3 S               4.630  0.00     8 C
                                   28.69%     1 S              -6.548  1.00    10 H
                                   28.45%     1 S              -6.548  1.00     9 H
                                   23.83%     1 S              -6.548  1.00    16 H
                                   23.66%     1 S              -6.548  1.00    17 H
                                   17.08%     1 P:y            -4.723  0.67     7 C
                                   16.84%     1 P:x            -4.723  0.67     4 C
                                   16.46%     1 P:y            -4.723  0.67     4 C
                                   16.21%     1 P:x            -4.723  0.67     7 C
                                   14.57%     2 P:y             4.559  0.00     4 C
                                   14.52%     2 P:x             4.559  0.00     7 C
                                   13.86%     1 P:z            -4.723  0.67     2 C
                                   13.79%     1 P:z            -4.723  0.67     1 C
                                   11.58%     2 P:y             4.559  0.00     7 C
                                  -11.56%     1 P:x             6.079  0.00    19 H
                                  -11.54%     1 P:y             6.079  0.00    14 H
                                   11.50%     1 S              -6.548  1.00    14 H
                                   11.48%     1 S              -6.548  1.00    19 H
                                   11.39%     2 P:x             4.559  0.00     4 C
                                   11.24%     1 P:z            -4.723  0.67     5 C
                                   11.09%     1 P:z            -4.723  0.67     6 C
                                  -11.05%     3 S               4.630  0.00     2 C
                                  -10.79%     3 S               4.630  0.00     1 C
                                  -10.62%     2 P:x             4.559  0.00     5 C
                                  -10.60%     2 S               2.112  0.00    12 H
                                  -10.50%     2 P:y             4.559  0.00     6 C
                                  -10.49%     2 S               2.112  0.00    21 H
                                   10.22%     3 S              14.899  0.00     9 H
                                   10.22%     3 S              14.899  0.00    10 H
                                   10.04%     1 P:z            -4.723  0.67     4 C
                                    9.96%     3 S              14.899  0.00    17 H
                                    9.94%     3 S              14.899  0.00    16 H
                                    9.80%     1 P:z            -4.723  0.67     7 C
                                   -9.27%     2 P:y             4.559  0.00     3 C
                                   -9.20%     2 P:x             4.559  0.00     8 C
                                   -8.03%     2 S               2.112  0.00    13 H
                                   -7.97%     2 S               2.112  0.00    20 H
                                    7.92%     2 S               2.112  0.00    16 H
                                    7.89%     2 S               2.112  0.00    17 H
                                   -7.57%     2 P:x             4.559  0.00     1 C
                                   -7.56%     2 P:y             4.559  0.00     2 C
                                    7.55%     1 S              -6.548  1.00    15 H
                                    7.47%     1 S              -6.548  1.00    18 H
                                    7.38%     2 P:z             4.559  0.00     1 C
                                    7.37%     2 P:z             4.559  0.00     2 C
                                   -7.10%     1 P:x            -4.723  0.67     5 C
                                   -7.07%     1 P:y            -4.723  0.67     6 C
                                    6.62%     2 S               2.112  0.00     9 H
                                    6.59%     2 S               2.112  0.00    10 H
                                    5.65%     2 P:z             4.559  0.00     4 C
                                    5.50%     2 P:z             4.559  0.00     7 C
                                   -5.16%     1 S              -6.548  1.00    12 H
                                   -5.15%     1 S              -6.548  1.00    21 H
                                   -4.61%     2 P:x             4.559  0.00     6 C
                                   -4.57%     2 P:y             4.559  0.00     5 C
                                   -4.54%     1 P:x             6.079  0.00    16 H
                                   -4.51%     1 P:y             6.079  0.00    17 H
                                    4.46%     1 P:y            -4.723  0.67     5 C
                                    4.39%     1 P:x            -4.723  0.67     6 C
                                   -4.38%     3 S              14.899  0.00    12 H
                                   -4.34%     3 S              14.899  0.00    21 H
                                   -4.32%     1 P:y             6.079  0.00    13 H
                                   -4.26%     1 P:x             6.079  0.00    20 H
                                   -4.11%     2 P:z             4.559  0.00     6 C
                                   -4.04%     2 P:z             4.559  0.00     5 C
                                   -3.87%     2 S               2.112  0.00    11 H
                                   -3.84%     2 S               2.112  0.00    22 H
                                   -3.72%     1 P:x             6.079  0.00    13 H
                                   -3.72%     1 P:y             6.079  0.00    20 H
                                   -3.66%     3 S              14.899  0.00    13 H
                                   -3.59%     3 S              14.899  0.00    20 H
                                   -3.48%     1 D:xy           14.191  0.00     4 C
                                   -3.44%     1 D:xy           14.191  0.00     7 C
                                   -3.28%     1 P:y             6.079  0.00    22 H
                                   -3.27%     1 P:x             6.079  0.00    11 H
                                    3.11%     1 P:y            -4.723  0.67     3 C
                                    3.00%     1 P:x            -4.723  0.67     8 C
                                    2.52%     3 S               4.630  0.00     4 C
                                   -2.52%     2 P:x             4.559  0.00     2 C
                                   -2.47%     2 P:y             4.559  0.00     1 C
                                   -2.47%     1 D:z2           14.191  0.00     3 C
                                   -2.45%     1 D:z2           14.191  0.00     8 C
                                    2.44%     3 S               4.630  0.00     7 C
                                   -2.42%     3 S              14.899  0.00    19 H
                                   -2.41%     3 S              14.899  0.00    14 H
                                    2.35%     1 P:z            -4.723  0.67     3 C
                                    2.34%     1 P:z            -4.723  0.67     8 C
                                   -2.10%     3 P:y            33.008  0.00     7 C
                                   -2.09%     1 P:y             6.079  0.00    10 H
                                   -2.08%     3 P:x            33.008  0.00     4 C
                                    2.07%     2 S             -17.589  2.00     3 C
                                   -2.06%     1 P:x             6.079  0.00     9 H
                                    2.06%     2 S             -17.589  2.00     8 C
                                   -1.90%     1 P:z             6.079  0.00    16 H
                                   -1.89%     1 P:z             6.079  0.00    17 H
                                   -1.80%     1 D:z2           14.191  0.00     7 C
                                   -1.80%     1 D:z2           14.191  0.00     4 C
                                   -1.78%     1 P:x            -4.723  0.67     1 C
                                   -1.77%     1 P:y            -4.723  0.67     2 C
                                   -1.57%     1 P:z             6.079  0.00    12 H
                                   -1.57%     3 P:y            33.008  0.00     5 C
                                   -1.56%     3 P:x            33.008  0.00     6 C
                                   -1.55%     1 P:z             6.079  0.00    21 H
                                   -1.51%     3 P:z            33.008  0.00     5 C
                                   -1.50%     3 P:z            33.008  0.00     6 C
                                    1.50%     1 P:z             6.079  0.00    11 H
                                    1.50%     3 P:x            33.008  0.00     7 C
                                    1.49%     1 P:z             6.079  0.00    22 H
                                    1.47%     3 P:y            33.008  0.00     4 C
                                    1.29%     1 D:z2           14.191  0.00     6 C
                                    1.27%     1 D:z2           14.191  0.00     5 C
                                    1.24%     1 P:x             6.079  0.00    12 H
                                    1.24%     1 P:y             6.079  0.00    21 H
                                   -1.23%     1 P:y            -4.723  0.67     1 C
                                   -1.19%     1 P:x            -4.723  0.67     3 C
                                   -1.19%     1 P:y            -4.723  0.67     8 C
                                   -1.18%     1 P:x            -4.723  0.67     2 C
                                   -1.17%     3 S              14.899  0.00    15 H
                                   -1.16%     3 S              14.899  0.00    18 H
                                    1.14%     2 S             -17.589  2.00     4 C
                                    1.12%     2 P:y             4.559  0.00     8 C
                                    1.12%     2 S             -17.589  2.00     7 C
                                    1.11%     2 P:z             4.559  0.00     8 C
                                    1.10%     2 P:z             4.559  0.00     3 C
                                   -1.10%     4 S              63.530  0.00    10 H
                                   -1.09%     4 S              63.530  0.00     9 H
                                    1.09%     2 P:x             4.559  0.00     3 C
                                   -1.08%     2 S               2.112  0.00    15 H
                                   -1.07%     2 S               2.112  0.00    18 H



 =======================================================================
 Electrostatic potential at the Nuclei due to electrons and other nuclei
 =======================================================================
  
         Atom                  Potential
         ----                  ---------
     1)   C                  14.80200724
     2)   C                  14.80203723
     3)   C                  14.78795641
     4)   C                  14.78824951
     5)   C                  14.79160207
     6)   C                  14.79159897
     7)   C                  14.78826477
     8)   C                  14.78793549
     9)   H                   1.11972079
    10)   H                   1.11978062
    11)   H                   1.13131510
    12)   H                   1.12808337
    13)   H                   1.13234821
    14)   H                   1.13452279
    15)   H                   1.13831348
    16)   H                   1.13358817
    17)   H                   1.13355521
    18)   H                   1.13832006
    19)   H                   1.13455468
    20)   H                   1.13232335
    21)   H                   1.12805897
    22)   H                   1.13134536
 Mulliken charges used for AMS results%charges...


    =====================
     CALCULATION RESULTS
    =====================

Energy (hartree)            -6.04722338


--------------
Atomic charges
--------------
  Index   Atom    Charge
      1      C   -0.0766
      2      C   -0.0763
      3      C    0.1813
      4      C    0.1439
      5      C    0.1329
      6      C    0.1326
      7      C    0.1442
      8      C    0.1814
      9      H    0.0930
     10      H    0.0930
     11      H   -0.1087
     12      H   -0.1012
     13      H   -0.0765
     14      H   -0.0870
     15      H   -0.0363
     16      H   -0.0648
     17      H   -0.0650
     18      H   -0.0362
     19      H   -0.0872
     20      H   -0.0763
     21      H   -0.1012
     22      H   -0.1088


Dipole moment vector    (Debye):     0.54807218   -0.55021453   -0.00119946
              magnitude (Debye):     0.77660839


AMS application finished. Exiting.
NORMAL TERMINATION
     Total cpu time:     897.78
  Total system time:       8.84
 Total elapsed time:     990.35
