

 Parallel Execution: Process Information
 ==============================================================================
 Rank   Node Name                              NodeID   MyNodeRank  NodeMaster
    0   yumans-mbp.home                           0          0          0
    1   yumans-mbp.home                           0          1         -1
    2   yumans-mbp.home                           0          2         -1
    3   yumans-mbp.home                           0          3         -1
    4   yumans-mbp.home                           0          4         -1
    5   yumans-mbp.home                           0          5         -1
    6   yumans-mbp.home                           0          6         -1
    7   yumans-mbp.home                           0          7         -1
    8   yumans-mbp.home                           0          8         -1
    9   yumans-mbp.home                           0          9         -1
 ==============================================================================


May use up to 15625MB of RAM as shared memory on node 0

 *******************************************************************************
 *                                                                             *
 *  --------------------------------                                           *
 *   Amsterdam Modeling Suite (AMS)              2022.103                      *
 *  --------------------------------                                           *
 *                                               r104886 2022-06-17            *
 *                                                                             *
 *                                                                             *
 *                              =================                              *
 *                              |               |                              *
 *                              |     A M S     |                              *
 *                              |               |                              *
 *                              =================                              *
 *                                                                             *
 *                                                                             *
 *   Online information and documentation:  https://www.scm.com/support/       *
 *   E-mail:  support@scm.com   info@scm.com                                   *
 *                                                                             *
 *   Scientific publications using AMS results must be properly referenced     *
 *   See the User Manuals (or the web site) for recommended citations          *
 *   The terms and conditions of the End User License Agreement apply to       *
 *   the use of AMS, https://www.scm.com/license-terms/                        *
 *                                                                             *
 **********************  x86_64_darwin_intel / openmpi  ************************
 
 Licensed to: Prof Visscher, Prof Bickelhaupt, Prof Fonseca Guerra / Vrije Universiteit, Theoretische Chemie / Amsterdam / NETHERLANDS 2022-12-13 09:59:29
 SCM User ID: u21794
  
 AMS 2022.103  RunTime: Aug25-2023 09:48:43  ShM Nodes: 1  Procs: 10

 AMS jobname: ams
 AMS jobid  : 601282736

 Start   directory: /Users/yumanhordijk/ADF_DATA/DFT_EDA/tmp.yumanhordijk.40304.0.noindex/
 Results directory: /Users/yumanhordijk/ADF_DATA/DFT_EDA/NH3BH3.Donor.results/
 Scratch directory: /tmp/amstmp_ams_kid0.601282736/


 Communication costs MPI_COMM_WORLD:      1.391 usec per message,   0.0307 usec per 8-byte item
 Communication costs for intra-node:      3.664 usec per message,   0.0385 usec per 8-byte item

 RNG seed: -1613487568 719723995 1196533023 1780050683 -1154468590 -893140645 1864576499 2106348067



                     *************************************************************************
                     *  ADF 2022.103  RunTime: Aug25-2023 09:48:46  ShM Nodes: 1  Procs: 10  *
                     *************************************************************************
  
 Geometry symmetrized to: Csv
 Geometry reoriented with symmetry: C(3V)
       ****************************
       * SINGLE POINT CALCULATION *
       ****************************
 
--------
Geometry
--------
Formula: H3N
Atoms
  Index Symbol   x (angstrom)   y (angstrom)   z (angstrom)
      1      N     0.00000000     0.00000000    -0.81474153       region=Donor
      2      H    -0.95216703     0.00000000    -1.14410295       region=Donor
      3      H     0.47608352    -0.82460084    -1.14410295       region=Donor
      4      H     0.47608352     0.82460084    -1.14410295       region=Donor
 
Total System Charge             0.00000
Bonding info available!
 
 
----------------
ADF Engine Input
----------------
 
 Basis
 Type TZ2P
 Core None
 End
 ALLOW  FRACTIONAL
 XC
 GGA OLYP
 End
 Title Donor fragment
 

 Title: Donor fragment

 *** adf ***



 ===========================
 A T T A C H E D   F I L E S
 ===========================
  



 ===============================
 M O D E L   P A R A M E T E R S
 ===============================
  
 DENSITY FUNCTIONAL POTENTIAL (scf)
    LDA:                               Exchange only                           == Not Default ==
    Gradient Corrections:              OPTX LYP                                == Not Default ==

 SPIN  (restricted / unrestr.)
    Molecule:                          Restricted                               
    Fragments:                         Restricted                               

 OTHER ASPECTS
    Relativistic Corrections:          scalar (ZORA,MAPA)                       

    Nuclear Charge Density Model:      Point Charge Nuclei                      
    Core Treatment:                    Frozen Orbital(s)                        

    Hyperfine or Zeeman Interaction:   ---                                      


 Fragment File(s)
 ----------------
 N:
         file : /Users/yumanhordijk/ADF_DATA/DFT_EDA/NH3BH3.Donor.results/t21.62CACDAB.N
         jobid: 0
         title: Nitrogen (TZ2P)
 H:
         file : /Users/yumanhordijk/ADF_DATA/DFT_EDA/NH3BH3.Donor.results/t21.4DC4E5D.H
         jobid: 0
         title: Hydrogen (TZ2P)



 ===============
 G E O M E T R Y  ***  3D  Molecule  ***
 ===============
  

 ATOMS
 =====                            X Y Z                    CHARGE
                                (Angstrom)             Nucl     +Core       At.Mass
                       --------------------------    ----------------       -------
    1  N               0.0000    0.0000   -0.8147      7.00      7.00       14.0031
    2  H              -0.9522    0.0000   -1.1441      1.00      1.00        1.0078
    3  H               0.4761   -0.8246   -1.1441      1.00      1.00        1.0078
    4  H               0.4761    0.8246   -1.1441      1.00      1.00        1.0078


 FRAGMENTS
 =========                                     Atoms in this Fragment     Cart. coord.s (Angstrom)
                                               -------------------------------------------------------
    1  N                                                 1  N            0.0000    0.0000   -0.8147
    2  H                                                 2  H           -0.9522    0.0000   -1.1441
    3  H                                                 3  H            0.4761   -0.8246   -1.1441
    4  H                                                 4  H            0.4761    0.8246   -1.1441


 Interatomic Distance Matrix (Angstrom)
 --------------------------------------

   1)     0.000
   2)     1.008   0.000
   3)     1.008   1.649   0.000
   4)     1.008   1.649   1.649   0.000

 Min. Distance =    1.0075
 Max. Distance =    1.6492



 =====================================
 S Y M M E T R Y ,   E L E C T R O N S
 =====================================
  
 Symmetry: C(3V)

 Irreducible Representations, including subspecies
 -------------------------------------------------
 A1
 A2
 E1:1  E1:2


 Configuration of Valence Electrons
 ==================================
 ( determined in the SCF procedure )

 Total:   10

 Net Charge: 0 (Nuclei minus Electrons)

 Aufbau principle for MO occupations will be applied through SCF cycle no.     150
 Thereafter, the program will assign electrons to MOs that are spatially
 similar to the occupied MOs in a "reference" cycle ("KeepOrbitals").
 The reference cycle is always the PREVIOUS cycle: it will evolve with
 the SCF procedure.
1
 ***************************************************************************************************



                                      ****************************************
                                      *  B U I L D : (Fragments, Functions)  *
                                      ****************************************
  



 =======
 S F O s  ***  (Symmetrized Fragment Orbitals)  ***
 =======
  
 SFOs are linear combinations of (valence) Fragment Orbitals (FOs), such that the SFOs transform as the
 irreducible representations of the (molecular) symmetry group. Each SFO is therefore characterized by
 an irrep of the molecule and by a few (or only one) generating FOs.
 The SFOs constitute a symmetry-adapted basis for the Fock matrix. The MO eigenvector coefficients in
 this basis provide a direct interpretation of the MOs in terms of Frontier Orbital Theory.

 The SFOs are combined with auxiliary Core Functions (CFs) to ensure orthogonalization on the (frozen)
 Core Orbitals (COs). The Core-orthogonalized SFOs (CSFOs) constitute the true Fock basis.

 The FOs, and hence also the (C)SFOs are combinations of the elementary basis functions (BAS). The basis
 functions that participate in the description of the SFOs depend on the irrep. The indices of the
 involved functions are printed below for each irrep.
 (The complete list of primitive basis functions is printed in another section)

 Total nr. of (C)SFOs (summation over all irreps) :    59

 NOTE: a (C)SFO that is defined as a combination of more than one FO is usually NOT normalized.



                                       === A1 ===
 Nr. of SFOs :   19
 Cartesian basis functions that participate in this irrep (total number =    49) :
      1     2     3     4     5     8    11    14    20    15
     18    30    23    28    21    24    31    43    55    32
     44    56    33    45    57    36    48    60    34    46
     47    58    59    42    54    66    39    51    53    63
     65    37    40    49    50    52    61    62    64

    SFO  (index         Fragment          Generating    Expansion in Fragment Orbitals
  indx  incl.CFs)   Occup   Orb.Energy   FragmentType  Coeff.   Orbital     on Fragment
 --------------------------------------------------------------------------------------
     1       1      2.000     -14.154 au  N             1.00      1 S               1
                        (    -385.144 eV)
     2       2      2.000      -0.687 au  N             1.00      2 S               1
                        (     -18.694 eV)
     3       3       --         0.529 au  N             1.00      3 S               1
                        (      14.408 eV)
     4       4       --         6.921 au  N             1.00      4 S               1
                        (     188.327 eV)
     5       5       --        63.573 au  N             1.00      5 S               1
                        (    1729.900 eV)
     6       6      1.000      -0.256 au  N             1.00      1 P:z             1
                        (      -6.963 eV)
     7       7       --         0.286 au  N             1.00      2 P:z             1
                        (       7.772 eV)
     8       8       --         3.321 au  N             1.00      3 P:z             1
                        (      90.361 eV)
     9       9       --         1.243 au  N             1.00      1 D:z2            1
                        (      33.812 eV)
    10      10       --         3.998 au  N             1.00      1 F:z3            1
                        (     108.788 eV)
    11      11       --         3.998 au  N             1.00      1 F:x             1
                        (     108.788 eV)
    12      12      1.000      -0.238 au  H             0.58      1 S               2
                        (      -6.484 eV)               0.58      1 S               3
                                                        0.58      1 S               4
    13      13       --         0.077 au  H             0.58      2 S               2
                        (       2.096 eV)               0.58      2 S               3
                                                        0.58      2 S               4
    14      14       --         1.521 au  H             0.58      3 S               2
                        (      41.380 eV)               0.58      3 S               3
                                                        0.58      3 S               4
    15      15       --         0.410 au  H             0.58      1 P:x             2
                        (      11.162 eV)              -0.29      1 P:x             3
                                                        0.50      1 P:y             3
                                                       -0.29      1 P:x             4
                                                       -0.50      1 P:y             4
    16      16       --         0.410 au  H             0.58      1 P:z             2
                        (      11.162 eV)               0.58      1 P:z             3
                                                        0.58      1 P:z             4
    17      17       --         2.567 au  H             0.58      1 D:z2            2
                        (      69.838 eV)               0.58      1 D:z2            3
                                                        0.58      1 D:z2            4
    18      18       --         2.567 au  H             0.58      1 D:x2-y2         2
                        (      69.838 eV)              -0.29      1 D:x2-y2         3
                                                       -0.50      1 D:xy            3
                                                       -0.29      1 D:x2-y2         4
                                                        0.50      1 D:xy            4
    19      19       --         2.567 au  H             0.58      1 D:xz            2
                        (      69.838 eV)              -0.29      1 D:xz            3
                                                        0.50      1 D:yz            3
                                                       -0.29      1 D:xz            4
                                                       -0.50      1 D:yz            4



                                       === A2 ===
 Nr. of SFOs :    4
 Cartesian basis functions that participate in this irrep (total number =    19) :
     22    27    35    46    47    58    59    41    51    53
     63    65    38    49    50    52    61    62    64

    SFO  (index         Fragment          Generating    Expansion in Fragment Orbitals
  indx  incl.CFs)   Occup   Orb.Energy   FragmentType  Coeff.   Orbital     on Fragment
 --------------------------------------------------------------------------------------
     1       1       --         3.998 au  N             1.00      1 F:y             1
                        (     108.788 eV)
     2       2       --         0.410 au  H             0.58      1 P:y             2
                        (      11.162 eV)              -0.50      1 P:x             3
                                                       -0.29      1 P:y             3
                                                        0.50      1 P:x             4
                                                       -0.29      1 P:y             4
     3       3       --         2.567 au  H             0.58      1 D:xy            2
                        (      69.838 eV)               0.50      1 D:x2            3
                                                       -0.29      1 D:xy            3
                                                       -0.50      1 D:x2            4
                                                       -0.29      1 D:xy            4
     4       4       --         2.567 au  H             0.58      1 D:yz            2
                        (      69.838 eV)              -0.50      1 D:xz            3
                                                       -0.29      1 D:yz            3
                                                        0.50      1 D:xz            4
                                                       -0.29      1 D:yz            4



                                       === E1:1 ===
 Nr. of SFOs :   18
 Cartesian basis functions that participate in this irrep (total number =    44) :
      6     9    12    17    15    18    26    23    28    21
     24    31    43    55    32    44    56    33    45    57
     36    48    60    34    46    47    58    59    42    54
     66    39    51    53    63    65    37    40    49    50
     52    61    62    64

    SFO  (index         Fragment          Generating    Expansion in Fragment Orbitals
  indx  incl.CFs)   Occup   Orb.Energy   FragmentType  Coeff.   Orbital     on Fragment
 --------------------------------------------------------------------------------------
     1       1      1.000      -0.256 au  N             1.00      1 P:x             1
                        (      -6.963 eV)
     2       2       --         0.286 au  N             1.00      2 P:x             1
                        (       7.772 eV)
     3       3       --         3.321 au  N             1.00      3 P:x             1
                        (      90.361 eV)
     4       4       --         1.243 au  N             1.00      1 D:x2-y2         1
                        (      33.812 eV)
     5       5       --         1.243 au  N             1.00      1 D:xz            1
                        (      33.812 eV)
     6       6       --         3.998 au  N             1.00      1 F:z             1
                        (     108.788 eV)
     7       7       --         3.998 au  N             1.00      1 F:z2x           1
                        (     108.788 eV)
     8       8      1.000      -0.238 au  H             0.82      1 S               2
                        (      -6.484 eV)              -0.41      1 S               3
                                                       -0.41      1 S               4
     9       9       --         0.077 au  H             0.82      2 S               2
                        (       2.096 eV)              -0.41      2 S               3
                                                       -0.41      2 S               4
    10      10       --         1.521 au  H             0.82      3 S               2
                        (      41.380 eV)              -0.41      3 S               3
                                                       -0.41      3 S               4
    11      11       --         0.410 au  H             0.82      1 P:x             2
                        (      11.162 eV)               0.20      1 P:x             3
                                                       -0.35      1 P:y             3
                                                        0.20      1 P:x             4
                                                        0.35      1 P:y             4
    12      12       --         0.410 au  H             0.82      1 P:z             2
                        (      11.162 eV)              -0.41      1 P:z             3
                                                       -0.41      1 P:z             4
    13      13       --         0.410 au  H             0.61      1 P:x             3
                        (      11.162 eV)               0.35      1 P:y             3
                                                        0.61      1 P:x             4
                                                       -0.35      1 P:y             4
    14      14       --         2.567 au  H             0.82      1 D:z2            2
                        (      69.838 eV)              -0.41      1 D:z2            3
                                                       -0.41      1 D:z2            4
    15      15       --         2.567 au  H             0.82      1 D:x2-y2         2
                        (      69.838 eV)               0.20      1 D:x2-y2         3
                                                        0.35      1 D:xy            3
                                                        0.20      1 D:x2-y2         4
                                                       -0.35      1 D:xy            4
    16      16       --         2.567 au  H             0.82      1 D:xz            2
                        (      69.838 eV)               0.20      1 D:xz            3
                                                       -0.35      1 D:yz            3
                                                        0.20      1 D:xz            4
                                                        0.35      1 D:yz            4
    17      17       --         2.567 au  H             0.61      1 D:x2-y2         3
                        (      69.838 eV)              -0.35      1 D:xy            3
                                                        0.61      1 D:x2-y2         4
                                                        0.35      1 D:xy            4
    18      18       --         2.567 au  H             0.61      1 D:xz            3
                        (      69.838 eV)               0.35      1 D:yz            3
                                                        0.61      1 D:xz            4
                                                       -0.35      1 D:yz            4



                                       === E1:2 ===
 Nr. of SFOs :   18
 Cartesian basis functions that participate in this irrep (total number =    36) :
      7    10    13    19    16    29    25    22    27    43
     55    44    56    45    57    48    60    35    46    47
     58    59    54    66    41    51    53    63    65    38
     49    50    52    61    62    64

    SFO  (index         Fragment          Generating    Expansion in Fragment Orbitals
  indx  incl.CFs)   Occup   Orb.Energy   FragmentType  Coeff.   Orbital     on Fragment
 --------------------------------------------------------------------------------------
     1       1      1.000      -0.256 au  N             1.00      1 P:y             1
                        (      -6.963 eV)
     2       2       --         0.286 au  N             1.00      2 P:y             1
                        (       7.772 eV)
     3       3       --         3.321 au  N             1.00      3 P:y             1
                        (      90.361 eV)
     4       4       --         1.243 au  N            -1.00      1 D:xy            1
                        (      33.812 eV)
     5       5       --         1.243 au  N             1.00      1 D:yz            1
                        (      33.812 eV)
     6       6       --         3.998 au  N            -1.00      1 F:xyz           1
                        (     108.788 eV)
     7       7       --         3.998 au  N             1.00      1 F:z2y           1
                        (     108.788 eV)
     8       8      1.000      -0.238 au  H             0.71      1 S               3
                        (      -6.484 eV)              -0.71      1 S               4
     9       9       --         0.077 au  H             0.71      2 S               3
                        (       2.096 eV)              -0.71      2 S               4
    10      10       --         1.521 au  H             0.71      3 S               3
                        (      41.380 eV)              -0.71      3 S               4
    11      11       --         0.410 au  H            -0.35      1 P:x             3
                        (      11.162 eV)               0.61      1 P:y             3
                                                        0.35      1 P:x             4
                                                        0.61      1 P:y             4
    12      12       --         0.410 au  H             0.71      1 P:z             3
                        (      11.162 eV)              -0.71      1 P:z             4
    13      13       --         0.410 au  H             0.82      1 P:y             2
                        (      11.162 eV)               0.35      1 P:x             3
                                                        0.20      1 P:y             3
                                                       -0.35      1 P:x             4
                                                        0.20      1 P:y             4
    14      14       --         2.567 au  H             0.71      1 D:z2            3
                        (      69.838 eV)              -0.71      1 D:z2            4
    15      15       --         2.567 au  H            -0.35      1 D:x2-y2         3
                        (      69.838 eV)              -0.61      1 D:xy            3
                                                        0.35      1 D:x2-y2         4
                                                       -0.61      1 D:xy            4
    16      16       --         2.567 au  H            -0.35      1 D:xz            3
                        (      69.838 eV)               0.61      1 D:yz            3
                                                        0.35      1 D:xz            4
                                                        0.61      1 D:yz            4
    17      17       --         2.567 au  H            -0.82      1 D:xy            2
                        (      69.838 eV)               0.35      1 D:x2            3
                                                       -0.20      1 D:xy            3
                                                       -0.35      1 D:x2            4
                                                       -0.20      1 D:xy            4
    18      18       --         2.567 au  H             0.82      1 D:yz            2
                        (      69.838 eV)               0.35      1 D:xz            3
                                                        0.20      1 D:yz            3
                                                       -0.35      1 D:xz            4
                                                        0.20      1 D:yz            4



 ================================
 (Slater-type)  F U N C T I O N S  ***  (Basis and Fit)  ***
 ================================
  

 Atom Type    1  (N)
 ==============

 Valence Basis Sets:  10
 -----------------------
   1 S    8.740000
   1 S    5.900000
   2 S    5.150000
   2 S    2.500000
   2 S    1.500000
   2 P    3.680000
   2 P    1.880000
   2 P    1.000000
   3 D    2.200000
   4 F    3.300000

 Atom Type    2  (H)
 ==============

 Valence Basis Sets:   5
 -----------------------
   1 S    0.690000
   1 S    0.920000
   1 S    1.580000
   2 P    1.250000
   3 D    2.500000


 BAS: List of all Elementary Cartesian Basis Functions
 =====================================================

 The numbering in the list below (to the right of the function characteristics) is referred
 to in print-outs of MO eigenvectors and Mulliken populations in the BAS representation
 (as contrasted to the SFO representation).

 Notes:
 1. The functions are characterized by a polynomial prefactor (powers of x,y,z and r) and
    an exponential decay factor alpha.
 2. Since the basis sets are specific for an atom TYPE, the individual functions occur on
    all atoms of that type.
 3. The word 'Core' in the left margin signals that it is a Core Function (CF) : not a
    degree of freedom in the valence set, but only used to ensure orthogonalization of
    the other valence basis functions on the frozen Core Orbitals.


 (power of) X  Y  Z  R     Alpha  on Atom
            ==========     =====     ==========

 N                                    1
                                  ---------------------------------------------------------------------------
            0  0  0  0     8.740      1
            0  0  0  0     5.900      2
            0  0  0  1     5.150      3
            0  0  0  1     2.500      4
            0  0  0  1     1.500      5
            1  0  0  0     3.680      6
            0  1  0  0     3.680      7
            0  0  1  0     3.680      8
            1  0  0  0     1.880      9
            0  1  0  0     1.880     10
            0  0  1  0     1.880     11
            1  0  0  0     1.000     12
            0  1  0  0     1.000     13
            0  0  1  0     1.000     14
            2  0  0  0     2.200     15
            1  1  0  0     2.200     16
            1  0  1  0     2.200     17
            0  2  0  0     2.200     18
            0  1  1  0     2.200     19
            0  0  2  0     2.200     20
            3  0  0  0     3.300     21
            2  1  0  0     3.300     22
            2  0  1  0     3.300     23
            1  2  0  0     3.300     24
            1  1  1  0     3.300     25
            1  0  2  0     3.300     26
            0  3  0  0     3.300     27
            0  2  1  0     3.300     28
            0  1  2  0     3.300     29
            0  0  3  0     3.300     30

 H                                    2    3    4
                                  ---------------------------------------------------------------------------
            0  0  0  0     0.690     31   43   55
            0  0  0  0     0.920     32   44   56
            0  0  0  0     1.580     33   45   57
            1  0  0  0     1.250     34   46   58
            0  1  0  0     1.250     35   47   59
            0  0  1  0     1.250     36   48   60
            2  0  0  0     2.500     37   49   61
            1  1  0  0     2.500     38   50   62
            1  0  1  0     2.500     39   51   63
            0  2  0  0     2.500     40   52   64
            0  1  1  0     2.500     41   53   65
            0  0  2  0     2.500     42   54   66

 Total number of charge fitting functions (nprimf)       234
 Total number of Cartesian basis functions (naos)         66
 Total number of Cartesian core functions  (ncos)          0

1
 ***************************************************************************************************



                                              ***********************
                                              *  T E C H N I C A L  *
                                              ***********************
  



 =============================================================
 P A R A L L E L I Z A T I O N  and  V E C T O R I Z A T I O N
 =============================================================
  
 Nr of parallel processes:                               10
 Maximum vector length in NumInt loops:                 128



 =====================
 S C F   U P D A T E S
 =====================
  
 Max. nr. of cycles:                               300
 Convergence criterion:                              0.0000010000
   secondary criterion:                              0.0010000000

 Mix parameter (when DIIS does not apply):           0.2000000000
 Mixed ADIIS+SDIIS will be used                  
    Max number of expansion vectors:                10
    Pure ADIIS when Max([F,P]) is above              0.1000000000
    Pure SDIIS when Max([F,P]) is below              0.0010000000
 Automatic ElectronSmearing (in case of problematic SCF convergence) disabled



 =================
 P R E C I S I O N  ***  (General: NumInt, NeglectFunctionTails, ...)  ***
 =================
  

 NumInt:           Target precision:                 4.0000000000
 -------           Initial precision:                4.0000000000
                   Min. precision (optimization):    4.0000000000

 Neglect Functions:          Basis functions:        0.1000000000E-05
 ------------------          Fit functions:          0.1000000000E-05



 ===========================
 L I N E A R   S C A L I N G
 ===========================
  

 Cut-off radii density fit:                        0.1000000000E-07
 Overlap cut-off criterion AO matrix elements:     0.1000000000E-05
 Cut-offs for Coulomb potential and fitted density:0.1000000000E-07
 Cut-off criterion for Coulomb multipole terms:    0.1000000000E-07
 Progressive Convergence parameter:                 0.000000000    
1
 ***************************************************************************************************



                                            ***************************
                                            *  C O M P U T A T I O N  *
                                            ***************************
  

 Number of elements of the density matrix on this node (used, total):       465      2211



 ===========================================
 Numerical Integration : Fuzzy Cells (Becke)
 ===========================================
  
 Becke grid quality: NORMAL         
  
 Lebedev angular grid order:             min:  11 max:  23
 Nr. of radial points:                   min:  46 max:  52

 Total nr. of points:       9781
 Nr. of blocks:               77
 Block length:               128
 Nr. of dummy points:         75


 Test of Precision of the Numerical Integration Grid
 ===================================================

 Integral of the Total Core Density:                   0.00000000000000



 ========================
 Density Fitting (zlmFit)
 ========================
  
 ZlmFit Fit Quality: NORMAL         
  
 Max L-expansion:                        min:   6 max:   7
 Nr. of radial interpolation points:     min:  39 max:  48



 =====
 S C F  ***  ScaSCF  ***
 =====
  
 Initial density matrix is calculated as sum of fragments

 CYCLE    1
 SCF Error: norm([F,P])=      2.570771991120, max([F,P])=      2.184158017931
 orbitals (Q,E):
 ---------------
 A1 :1...13          ( 2.00   -14.3030)  ( 2.00    -0.9845)  ( 2.00    -0.4154)  ( 0.00    -0.0615)
                     ( 0.00     0.1658)  ( 0.00     0.1969)  ( 0.00     0.5283)  ( 0.00     1.0152)
                     ( 0.00     1.2424)  ( 0.00     1.4195)  ( 0.00     1.9023)  ( 0.00     2.4686)
                     ( 0.00     3.4315)
 A2 :1...4           ( 0.00     0.8024)  ( 0.00     2.8127)  ( 0.00     3.6007)  ( 0.00     6.6602)
 E1 :1...11          ( 4.00    -0.6041)  ( 0.00     0.0034)  ( 0.00     0.1304)  ( 0.00     0.3399)
                     ( 0.00     0.3750)  ( 0.00     0.9664)  ( 0.00     1.0865)  ( 0.00     1.6600)
                     ( 0.00     1.9361)  ( 0.00     2.1217)  ( 0.00     2.8111)

 CYCLE    2
  SDIIS (wt  0.000):  0.1201  0.8799
 A-DIIS (wt  1.000):  0.7035  0.2965
  DIIS coefficients:  0.7035  0.2965
 SCF Error: norm([F,P])=      0.839120285774, max([F,P])=      0.345140116890
 orbitals (Q,E):
 ---------------
 A1 :1...4           ( 2.00   -14.0387)  ( 2.00    -0.8567)  ( 2.00    -0.2848)  ( 0.00    -0.0384)
 A2 :1...1           ( 0.00     0.8396)
 E1 :1...2           ( 4.00    -0.4912)  ( 0.00     0.0288)

 CYCLE    3
  SDIIS (wt  0.000):  0.0094 -0.2416  1.2322
 A-DIIS (wt  1.000):  0.3174  0.0000  0.6826
  DIIS coefficients:  0.3174  0.0000  0.6826
 SCF Error: norm([F,P])=      0.187176315220, max([F,P])=      0.074502547906
 orbitals (Q,E):
 ---------------
 A1 :1...4           ( 2.00   -14.0005)  ( 2.00    -0.8032)  ( 2.00    -0.2370)  ( 0.00    -0.0279)
 A2 :1...1           ( 0.00     0.8687)
 E1 :1...2           ( 4.00    -0.4414)  ( 0.00     0.0377)

 CYCLE    4
  SDIIS (wt  0.798):  0.0419 -0.5700  1.5281
 A-DIIS (wt  0.202):  0.0000  0.0000  1.0000
  DIIS coefficients:  0.0334 -0.4548  1.4214
 SCF Error: norm([F,P])=      0.049541924604, max([F,P])=      0.021012810827
 orbitals (Q,E):
 ---------------
 A1 :1...4           ( 2.00   -13.9851)  ( 2.00    -0.7753)  ( 2.00    -0.2116)  ( 0.00    -0.0229)
 A2 :1...1           ( 0.00     0.8855)
 E1 :1...2           ( 4.00    -0.4153)  ( 0.00     0.0412)

 CYCLE    5
  SDIIS (wt  0.922):  0.0275 -0.1614  0.4506  0.6834
 A-DIIS (wt  0.078):  0.0000  0.0000  0.0635  0.9365
  DIIS coefficients:  0.0253 -0.1488  0.4203  0.7032
 SCF Error: norm([F,P])=      0.020513594111, max([F,P])=      0.008739862749
 orbitals (Q,E):
 ---------------
 A1 :1...4           ( 2.00   -13.9931)  ( 2.00    -0.7789)  ( 2.00    -0.2154)  ( 0.00    -0.0234)
 A2 :1...1           ( 0.00     0.8844)
 E1 :1...2           ( 4.00    -0.4184)  ( 0.00     0.0406)

 CYCLE    6
  SDIIS (wt  1.000):  0.0000  0.0060 -0.0072  0.1170  0.8842
  DIIS coefficients:  0.0000  0.0060 -0.0072  0.1170  0.8842
 SCF Error: norm([F,P])=      0.001898724168, max([F,P])=      0.000834770272
 orbitals (Q,E):
 ---------------
 A1 :1...4           ( 2.00   -13.9923)  ( 2.00    -0.7787)  ( 2.00    -0.2151)  ( 0.00    -0.0234)
 A2 :1...1           ( 0.00     0.8845)
 E1 :1...2           ( 4.00    -0.4182)  ( 0.00     0.0406)

 CYCLE    7
  SDIIS (wt  1.000):  0.0000 -0.0002  0.0008  0.0038  0.0400  0.9556
  DIIS coefficients:  0.0000 -0.0002  0.0008  0.0038  0.0400  0.9556
 SCF Error: norm([F,P])=      0.000028642137, max([F,P])=      0.000010403138
 orbitals (Q,E):
 ---------------
 A1 :1...4           ( 2.00   -13.9923)  ( 2.00    -0.7787)  ( 2.00    -0.2151)  ( 0.00    -0.0234)
 A2 :1...1           ( 0.00     0.8845)
 E1 :1...2           ( 4.00    -0.4182)  ( 0.00     0.0406)

 CYCLE    8
  SDIIS (wt  1.000): -0.0000  0.0001 -0.0002 -0.0003 -0.0038  0.1077  0.8964
  DIIS coefficients: -0.0000  0.0001 -0.0002 -0.0003 -0.0038  0.1077  0.8964
 SCF Error: norm([F,P])=      0.000005202068, max([F,P])=      0.000001951134
 orbitals (Q,E):
 ---------------
 A1 :1...4           ( 2.00   -13.9923)  ( 2.00    -0.7787)  ( 2.00    -0.2151)  ( 0.00    -0.0234)
 A2 :1...1           ( 0.00     0.8845)
 E1 :1...2           ( 4.00    -0.4182)  ( 0.00     0.0406)

 CYCLE    9
  SDIIS (wt  1.000):  0.0000 -0.0000  0.0000 -0.0001 -0.0003  0.0036  0.0568  0.9399
  DIIS coefficients:  0.0000 -0.0000  0.0000 -0.0001 -0.0003  0.0036  0.0568  0.9399
 SCF Error: norm([F,P])=      0.000000482716, max([F,P])=      0.000000177931
 orbitals (Q,E):
 ---------------
 A1 :1...4           ( 2.00   -13.9923)  ( 2.00    -0.7787)  ( 2.00    -0.2151)  ( 0.00    -0.0234)
 A2 :1...1           ( 0.00     0.8845)
 E1 :1...2           ( 4.00    -0.4182)  ( 0.00     0.0406)

 SCF CONVERGED

 CYCLE   10
1
 ***************************************************************************************************



                                                *******************
                                                *  R E S U L T S  *
                                                *******************
  
 *** Using FIT density in Focky
  SDIIS (wt  1.000): -0.0000 -0.0000  0.0000 -0.0000 -0.0000 -0.0003  0.0016  0.0803  0.9184
  DIIS coefficients: -0.0000 -0.0000  0.0000 -0.0000 -0.0000 -0.0003  0.0016  0.0803  0.9184
 SCF Error: norm([F,P])=      0.000000024475, max([F,P])=      0.000000011355

 Scaled ZORA Orbital Energies, per Irrep and Spin:
 =================================================
                        Occup              E (au)              E (eV)       Diff (eV) with prev. cycle
                        -----      --------------------        ------       --------------------------
 A1
               1        2.000     -0.13992329312652E+02      -380.751              -2.62E-07
               2        2.000     -0.77865506819014E+00       -21.188              -1.89E-07
               3        2.000     -0.21512503416120E+00        -5.854              -1.54E-07
               4        0.000     -0.23356317837418E-01        -0.636
               5        0.000      0.25291893083605E+00         6.882
               6        0.000      0.29095330842384E+00         7.917
               7        0.000      0.63009447389539E+00        17.146
               8        0.000      0.11196007505927E+01        30.466
               9        0.000      0.13709068881378E+01        37.304
              10        0.000      0.15407730556463E+01        41.927
              11        0.000      0.20533874427403E+01        55.876
              12        0.000      0.26166456990511E+01        71.203
              13        0.000      0.36298592144131E+01        98.773
 A2
               1        0.000      0.88447409004399E+00        24.068
               2        0.000      0.29305892633998E+01        79.745
               3        0.000      0.37503796169829E+01       102.053
               4        0.000      0.68499915268467E+01       186.398
 E1
               1        4.000     -0.41822461178546E+00       -11.380              -1.43E-07
               2        0.000      0.40570380434701E-01         1.104
               3        0.000      0.21803069575445E+00         5.933
               4        0.000      0.44887057080730E+00        12.214
               5        0.000      0.46546430585103E+00        12.666
               6        0.000      0.10542480552233E+01        28.688
               7        0.000      0.12157579548783E+01        33.082
               8        0.000      0.18227139199965E+01        49.599
               9        0.000      0.20527282868694E+01        55.858
              10        0.000      0.22930437532321E+01        62.397
              11        0.000      0.29307461432641E+01        79.750
  
 HOMO :        3 A1               -0.21512503416120E+00
 LUMO :        4 A1               -0.23356317837418E-01
  


 Orbital Energies, all Irreps
 ========================================

 Irrep        no.  (spin)   Occup              E (au)                E (eV)
 ---------------------------------------------------------------------------
 A1            1             2.00       -0.13992329312652E+02      -380.7507
 A1            2             2.00       -0.77865506819014E+00       -21.1883
 E1            1             4.00       -0.41822461178546E+00       -11.3805
 A1            3             2.00       -0.21512503416120E+00        -5.8539
 A1            4             0.00       -0.23356317837418E-01        -0.6356
 E1            2             0.00        0.40570380434701E-01         1.1040
 E1            3             0.00        0.21803069575445E+00         5.9329
 A1            5             0.00        0.25291893083605E+00         6.8823
 A1            6             0.00        0.29095330842384E+00         7.9172
 E1            4             0.00        0.44887057080730E+00        12.2144
 E1            5             0.00        0.46546430585103E+00        12.6659
 A1            7             0.00        0.63009447389539E+00        17.1457
 A2            1             0.00        0.88447409004399E+00        24.0678
 E1            6             0.00        0.10542480552233E+01        28.6875
 A1            8             0.00        0.11196007505927E+01        30.4659
 E1            7             0.00        0.12157579548783E+01        33.0825
 A1            9             0.00        0.13709068881378E+01        37.3043
 A1           10             0.00        0.15407730556463E+01        41.9266
 E1            8             0.00        0.18227139199965E+01        49.5986
 E1            9             0.00        0.20527282868694E+01        55.8576
 A1           11             0.00        0.20533874427403E+01        55.8755
 E1           10             0.00        0.22930437532321E+01        62.3969
 A1           12             0.00        0.26166456990511E+01        71.2026
 A2            2             0.00        0.29305892633998E+01        79.7454
 E1           11             0.00        0.29307461432641E+01        79.7497
 E1           12             0.00        0.30855465565979E+01        83.9620
 A1           13             0.00        0.36298592144131E+01        98.7735
 E1           13             0.00        0.37241532264829E+01       101.3394
 A2            3             0.00        0.37503796169829E+01       102.0530
 E1           14             0.00        0.43150565163872E+01       117.4187
 A1           14             0.00        0.45379402400772E+01       123.4836
 A1           15             0.00        0.46856492908167E+01       127.5030
 E1           15             0.00        0.49334083407236E+01       134.2449
 E1           16             0.00        0.52118739946922E+01       141.8223
 A1           16             0.00        0.59322706605210E+01       161.4253
 A1           17             0.00        0.61068282650005E+01       166.1753
 E1           17             0.00        0.65913221043872E+01       179.3590
 A2            4             0.00        0.68499915268467E+01       186.3978
 E1           18             0.00        0.81767301547966E+01       222.5001
 A1           18             0.00        0.89318048700108E+01       243.0468
 A1           19             0.00        0.69329422956449E+02      1886.5496


 All Electron Calculation, thus no Orbital Energies of the Core Orbitals are calculated


 Fit test: (difference of exact and fit density, squared integrated, result summed over spins)
         Sum-of-Fragments:                             0.00000000000370
         Orthogonalized Fragments:                     0.00000992197976
         SCF:                                          0.00003702606695



 ==========================
 Electron Density at Nuclei
 ==========================
  
 The electron density is calculated at points on a small sphere around the center of a nucleus.
 The printed electron density is the average electron density on these points.
 The radius of the sphere is the printed approximate finite nuclear radius.
 Note: ZORA-4 density is used, which includes small component density

         Atom        Nuclear Radius (Angstrom)             Electron Density (a.u.)
         ----        -------------------------             -----------------------
     1)   N                 0.0000333706                              205.53518
     2)   H                 0.0000181514                                0.50763
     3)   H                 0.0000181514                                0.50763
     4)   H                 0.0000181514                                0.50763



 =======================================
 M U L L I K E N   P O P U L A T I O N S
 =======================================
  
 The survey below gives for each atom:
 a) the total charge (Z minus electrons)
 b) the net spin polarization (nr of electrons spin-A minus spin-B)
 c) for each spin the atomic electron valence density (integrated) per L-value.

 Atom              Charge    Spin density          S         P         D         F
 ----              ------    ------------       ------    ------    ------    ------
 1 N              -0.0497                       3.3893    3.6321    0.0260    0.0023
 2 H               0.0166                       0.8619    0.1124    0.0091    0.0000
 3 H               0.0166                       0.8619    0.1124    0.0091    0.0000
 4 H               0.0166                       0.8619    0.1124    0.0091    0.0000

 Populations of individual BAS functions
 ----------------------------------------
 1 N            0.5227  1.4833 -0.0750  1.0293  0.4290  0.1584  0.1584  0.2146  0.8652  0.8652
                0.9162 -0.0554 -0.0554  0.5648  0.0137  0.0052  0.0066  0.0137  0.0066 -0.0199
                0.0024  0.0007  0.0051  0.0014  0.0002 -0.0028  0.0022  0.0051 -0.0028 -0.0093
 2 H           -0.0131  0.5256  0.3495  0.0204  0.0325  0.0596  0.0100  0.0032  0.0035 -0.0049
                0.0003 -0.0030
 3 H           -0.0131  0.5256  0.3495  0.0295  0.0234  0.0596 -0.0004  0.0016  0.0011  0.0070
                0.0027 -0.0030
 4 H           -0.0131  0.5256  0.3495  0.0295  0.0234  0.0596 -0.0004  0.0016  0.0011  0.0070
                0.0027 -0.0030

 Gross Charges per Atom (Z minus electrons)
 ==========================================
            -0.0497    0.0166    0.0166    0.0166
 Net Total:  0.00000000


 Atom-Atom Population Matrix (off-diagonal elements not doubled)
 ===============================================================

     1 :     5.7725
     2 :     0.4258    0.7231
     3 :     0.4258   -0.0827    0.7231
     4 :     0.4258   -0.0827   -0.0827    0.7231



 =================================================
 H I R S H F E L D   C H A R G E   A N A L Y S I S
 =================================================
  
 For each fragment: the (numerical) integral of rho(scf) * rho(fragment)/rho(sum-of-fragments)
 (nuclear charges are included, electrons are counted negative)

 The fragments and their ordering are defined in the early G E O M E T R Y output section.
 If you use single-atom fragments, this usually implies that all atoms of the same
 chemical type are grouped together. This may not be the order in which you listed them
 in the input file!

    1  N                        -0.2984
    2  H                         0.0995
    3  H                         0.0995
    4  H                         0.0995

 Sum of these charges (accuracy NumInt/Tails) =          -0.00000152



 =============================
 V O R O N O I   C H A R G E S
 =============================
  
 For each atom: the (numerical) integral of the total electronic charge density in its Voronoi cell,
 i.e. the region of space that is closer to that atom than to any other atom.
 (cf. Wigner-Seitz cells in crystals)

 Within the Voronoi cell the subintegrals over the atomic sphere and the remaining part are evaluated
 separately to give the numbers of electrons (negative charge) in these regions.
 The net total charge in the cell (including the nuclear charge) is also given.

 Values are provided for
    a) the Initial (sum-of-fragments) density
    b) the Orthogonalized-Fragments density
    c) the SCF density
    d) the Voronoi Deformation Density (VDD): the difference SCF-Initial for the complete atomic cell


  Atom                Initial                    OrthFrag                   SCF
             Sphere RestCell NetTotal   Sphere RestCell NetTotal   Sphere RestCell NetTotal      VDD
 -----       ------------------------   ------------------------   ------------------------    -----
    1 N      -2.317   -3.149    1.533   -2.441   -3.395    1.164   -2.341   -3.364    1.295   -0.238
    2 H      -0.081   -1.431   -0.511   -0.092   -1.297   -0.388   -0.111   -1.321   -0.432    0.079
    3 H      -0.081   -1.431   -0.511   -0.092   -1.297   -0.388   -0.111   -1.321   -0.432    0.079
    4 H      -0.081   -1.431   -0.511   -0.092   -1.297   -0.388   -0.111   -1.321   -0.432    0.079
 ---------------------------------------------------------------------------------------------------
 Total NetCharge:              -0.000                     -0.000                     -0.000   -0.000
 (accuracy NumInt/Tails)

 Remark: the 'NetTotal' Voronoi charges often do not match the Mulliken and/or Hirshfeld charges very
 well. This is caused by the fact that chemically different atoms are not treated in accordance with
 their relative sizes. (Voronoi cells are defined by boundary planes halfway between the atoms.)
 However, the CHANGES in charge, comparing 'Initial' to 'SCF' for instance, do give a fair indication
 of the flow of charge caused by the relaxation from sum-of-fragments to self-consistency.

 Warning: the absolute accuracy of the VDD charges obtained using the Fuzzy Cells (Becke) integration
 scheme is much poorer than the one obtained with an 'equivalent' Voronoi integration grid. 



 =================================================================
 M U L T I P O L E   D E R I V E D   C H A R G E   A N A L Y S I S
 =================================================================

 This charge analysis uses the atomic multipoles (obtained from the fitted density) up to some level X,
 and reconstructs these multipoles exactly (up to level X) by distributing charges over all atoms.
 This is achieved by using Lagrange multipliers and a weight function to keep the multipoles local.

 Dummy atoms can be included (by setting INCDUM in MDC-block to 1) to obtain a fractional charge.
 This is generally useful and necessary only for small symmetrical molecules, when there are not
 enough degrees of freedom to reconstruct the multipoles.

 Since the atomic multipoles are reconstructed up to level X,
 the molecular multipoles are represented also up to level X.
 The recommended level is to reconstruct up to quadrupole : -> MDC-q charges.

 See: M. Swart, P.Th. van Duijnen, J.G. Snijders, J.Comput.Chem., (2001), p. 79-88.

 ------------------------------------------------------------- 
 Atomic electronic multipole moments from SCF equations (a.u.)
 ------------------------------------------------------------- 

   atom        charge        dip-x     dip-y     dip-z      quad-xx   quad-xy   quad-xz   quad-yy   quad-yz   quad-zz
 --------------------------------------------------------------------------------------------------------------------
    1 N     -0.025756    -0.000045  0.000000 -0.489147     0.640056  0.000000  0.000047  0.639898  0.000000 -1.279954
    2 H      0.008607    -0.062224  0.000000  0.004083     0.203425 -0.000000  0.060346 -0.010400 -0.000000 -0.193025
    3 H      0.008574     0.031184 -0.053979  0.004085     0.043013 -0.061537 -0.030185  0.149806  0.052267 -0.192818
    4 H      0.008574     0.031184  0.053979  0.004085     0.043013  0.061537 -0.030185  0.149806 -0.052267 -0.192818

 --------------------------------------- 
 Multipole derived atomic charges (a.u.)
 --------------------------------------- 

 The MDC-m charges are just the Monopole terms in the multipole expansion, while for the MDC-d charges
 also the Dipoles are reconstructed. The usually preferred charges are the MDC-q charges.
 These reconstruct the Monopoles, Dipoles and Quadrupoles (both atomic AND molecular).

        Atom    Level:     MDC-m        MDC-d        MDC-q
 ---------------------------------------------------------
     1     N           -0.025756    -0.791970    -1.032247
     2     H            0.008607     0.263975     0.329355
     3     H            0.008574     0.263997     0.351446
     4     H            0.008574     0.263997     0.351446

 ------------------------------------------------ 
 Average absolute deviations in atomic multipoles
 ------------------------------------------------ 

 Stated here are the average differences between the atomic multipoles
 and the reconstructed atomic multipoles (from the distributed charges).
 If these values are not zero, this means there are not enough degrees of freedom,
 to be able to reconstruct the atomic multipoles. (This usually happens only
 for small and/or highly symmetric molecules). If this is the case, one could add
 dummy atoms as extra point charges (and setting INCDUM in MDC-block to 1).

 Level:                                 MDC-d        MDC-q
 ---------------------------------------------------------
 Charge   (a.u.)                       0.0000       0.0000
 Dipole   (Debye)                      0.0000       0.1296
 Quad.    (a.u.)                       0.1198       0.0287

 --------------------------------------- 
 Represented molecular multipole moments
 --------------------------------------- 

 Given here are the Molecular multipole moments from the atomic charges, and from the Fit Density.
 Note that the atomic charges represent the latter, NOT the ones from the Exact density.

            Q (a.u.)             Dipole moment (Debye)                                          Quadrupole moment (a.u.)
                                 x         y         z              xx        xy        xz        yy        yz        zz
------------------------------------------------------------------------------------------------------------------------
MDC-m        -0.0000       -0.0001   -0.0000   -0.0407         -0.0087   -0.0000    0.0002   -0.0089    0.0000    0.0176
MDC-d         0.0000        0.0001   -0.0000   -1.2529         -0.2714   -0.0000   -0.0001   -0.2712    0.0000    0.5426
MDC-q        -0.0000        0.1010    0.0000   -1.6330         -0.4073    0.0000   -0.1289   -0.3000   -0.0000    0.7072
 
Fit.Dens.    -0.0000        0.0001   -0.0000   -1.2529          0.3621   -0.0000   -0.0001    0.3620    0.0000   -0.7240



 =============
 Dipole Moment  ***  (Debye)  ***
 =============
  
 Vector   :        -0.00000000      0.00000000     -1.25486154
 Magnitude:         1.25486154

 This molecular dipole moment is calculated with analytic integration



 =========================================
 Quadrupole Moment (Buckingham convention)  ***  (a.u.)  ***
 =========================================
  
      quad-xx        quad-xy        quad-xz        quad-yy        quad-yz        quad-zz
      0.36214195    -0.00000000    -0.00000000     0.36214195     0.00000000    -0.72428390

 This molecular quadrupole moment is calculated with analytic integration
1



 ===========================
 B O N D I N G   E N E R G Y  ***  (decomposition)  ***
 ===========================
  
*** IMPORTANT NOTE ***

The bond energy is computed as an energy difference between molecule and
fragments. In particular when the fragments are single atoms, they are usually
computed as SPHERICALLY SYMMETRIC and SPIN-RESTRICTED. Obviously, this usually
does NOT represent the true atomic groundstate.

To obtain the 'real' bond energy, (atomic) correction terms must be applied
for the true (multiplet) fragment ground state. See ref: E.J.Baerends,
V.Branchadell, M.Sodupe, Chem.Phys.Lett.265 (1997) 481

General theoretical background on the bond energy decomposition scheme used
here (Morokuma-Ziegler) can be found in the review paper:
F.M. Bickelhaupt and E.J. Baerends,
"Kohn-Sham Density Functional Theory: Predicting and Understanding Chemistry"
In: Rev. Comput. Chem.; Lipkowitz, K. B. and Boyd, D. B., Eds.;
Wiley-VCH: New York, 2000, Vol. 15, 1-86.

Symbols used in the Bickelhaupt-Baerends (BB) paper are given below to make
the direct connection to that paper, where detailed explanations can be found
on the meaning of the various terms.


                                                   hartree              eV         kcal/mol           kJ/mol
                                      --------------------     -----------       ----------      -----------

Pauli Repulsion
  Kinetic (Delta T^0):                   4.816097905806407        131.0527          3022.15         12644.66
  Delta V^Pauli Coulomb:                -2.246790666907541        -61.1383         -1409.88         -5898.95
  Delta V^Pauli LDA-XC:                 -0.586071606312264        -15.9478          -367.77         -1538.73
  Delta V^Pauli GGA-Exchange:            0.050513252172977          1.3745            31.70           132.62
  Delta V^Pauli GGA-Correlation:        -0.044016773463310         -1.1978           -27.62          -115.57
                                      --------------------     -----------       ----------      -----------
  Total Pauli Repulsion:                 1.989732111296269         54.1434          1248.58          5224.04
 (Total Pauli Repulsion =
  Delta E^Pauli in BB paper)

Steric Interaction
  Pauli Repulsion (Delta E^Pauli):       1.989732111296269         54.1434          1248.58          5224.04
  Electrostatic Interaction:            -0.328935232046401         -8.9508          -206.41          -863.62
 (Electrostatic Interaction =
  Delta V_elstat in the BB paper)
                                      --------------------     -----------       ----------      -----------
  Total Steric Interaction:              1.660796879249868         45.1926          1042.17          4360.42
 (Total Steric Interaction =
  Delta E^0 in the BB paper)

Orbital Interactions
  A1:                                   -0.839851459166711        -22.8535          -527.01         -2205.03
  A2:                                    0.000000000000000          0.0000             0.00             0.00
  E1:                                   -1.521867519038947        -41.4121          -954.99         -3995.66
                                      --------------------     -----------       ----------      -----------
  Total Orbital Interactions:           -2.361718978205657        -64.2656         -1482.00         -6200.69

Alternative Decomposition Orb.Int.
  Kinetic:                              -4.119081341337123       -112.0859         -2584.76        -10814.65
  Coulomb:                               1.799700411796969         48.9723          1129.33          4725.11
  XC:                                   -0.042338048665504         -1.1521           -26.57          -111.16
                                      --------------------     -----------       ----------      -----------
  Total Orbital Interactions:           -2.361718978205658        -64.2656         -1482.00         -6200.69

  Residu (E=Steric+OrbInt+Res):         -0.000037432752139         -0.0010            -0.02            -0.10

Total Bonding Energy:                   -0.700959531707927        -19.0741          -439.86         -1840.37


Summary of Bonding Energy (energy terms are taken from the energy decomposition above)
======================================================================================

  Electrostatic Energy:                 -0.328935232046401         -8.9508          -206.41          -863.62
  Kinetic Energy:                        0.697016564469284         18.9668           437.38          1830.02
  Coulomb (Steric+OrbInt) Energy:       -0.447127687862710        -12.1670          -280.58         -1173.93
  XC Energy:                            -0.621913176268101        -16.9231          -390.26         -1632.83
                                      --------------------     -----------       ----------      -----------
  Total Bonding Energy:                 -0.700959531707928        -19.0741          -439.86         -1840.37


Correction terms (incorporated in energies above; only for test purposes):

1. Indication of fit-quality: 1st-order fit-correction used in the energy (hartree):   0.0002570711
2. Electrostatic (Fit correction):   0.0000000000

Scaled ZORA energy correction, not included in bonding energy (hartree):           -0.0000050230
 NOTE: This scaled ZORA energy correction should only be used to compare two calculations
 in which the only difference in the calculation is the electron configuration.
 Then the difference in energy of this term should be added to the difference in energy of
 the two electron configurations.
 This term should not be used otherwise.
 In practice it is useful only for core excitation energy calculations.



 =========================================
 F R A G M E N T   E N E R G Y   T E R M S  ***  (summed over all fragments)  ***
 =========================================
  

The energy terms below are (parts of) the Total Energy of the fragments from which the molecule
 is built.

Exchange and Correlation
  Exchange LDA:                         -6.311110057076548       -171.7340         -3960.28        -16569.82
  Exchange GGA:                         -0.823468111634430        -22.4077          -516.73         -2162.02
  Correlation LDA:                       0.000000000000000          0.0000             0.00             0.00
  Correlation GGA:                      -0.263401694475427         -7.1675          -165.29          -691.56
                                      --------------------     -----------       ----------      -----------
  Total XC:                             -7.397979863186405       -201.3093         -4642.30        -19423.39
1



 =======================================================
 S F O   P O P U L A T I O N S ,   M O   A N A L Y S I S
 =======================================================
  
 A Mulliken population analysis is performed on (input-)selected MOs. All populations refer to SFOs.
 BAS populations may have been printed directly after the SCF part.


                                       === A1 ===


 SFO contributions (%) per orbital
 (multiplication by the orbital occupation yields the SFO Gross Populations)

 Orb.:        1      2      3      4      5      6      7
 occup:     2.00   2.00   2.00   0.00   0.00   0.00   0.00
 CF+SFO     ----   ----   ----   ----   ----   ----   ----
 ------
      1:   99.96   0.00   0.00   0.00  -0.01   0.01  -0.01
      2:   -0.00  63.33   6.76   0.57  30.97  -0.23  -4.10
      3:    0.00  -0.48  -0.11   2.82 -34.26  -5.77 -17.42
      6:   -0.00   2.16  82.46   0.04   4.03  -3.11   8.38
      7:    0.00  -0.02   0.19   2.08   7.90 109.01  -8.78
      8:    0.00  -0.01  -0.00  -0.11  -0.54  -0.28  -1.80
      9:    0.00   0.09   0.03   0.10  -0.60   0.44  12.19
     12:    0.02  31.64   1.53  18.28  67.59  -9.64  18.81
     13:   -0.00  -0.76   0.58  66.25  27.63   5.17  -0.59
     14:    0.00  -1.40   0.20   0.57   1.51  -3.17  13.73
     15:    0.02   4.90   0.07   8.80  -6.50   5.27  36.18
     16:   -0.00   0.26   7.78   0.34   3.50   0.60  44.77
     18:    0.00   0.16   0.04   0.33  -0.61   0.35  -1.33


 Summation over all MOs, multiplied by occupation: Total SFO Gross Populations in this Irrep
 ===========================================================================================

     2.00    1.40   -0.01    0.00   -0.00    1.69    0.00   -0.00    0.00    0.00    0.00    0.66
    -0.00   -0.02    0.10    0.16    0.00    0.00    0.01


                                       === A2 ===


 SFO contributions (%) per orbital
 (multiplication by the orbital occupation yields the SFO Gross Populations)

 Orb.:        1      2      3      4
 occup:     0.00   0.00   0.00   0.00
 CF+SFO     ----   ----   ----   ----
 ------
      1:   -0.77   5.48  19.69  75.60
      2:   98.46   0.02   1.73  -0.21
      3:    2.29   0.48  75.77  21.46
      4:    0.02  94.02   2.82   3.15


 Summation over all MOs, multiplied by occupation: Total SFO Gross Populations in this Irrep
 ===========================================================================================

     0.00    0.00    0.00    0.00


                                       === E1:1 ===


 SFO contributions (%) per orbital
 (multiplication by the orbital occupation yields the SFO Gross Populations)

 Orb.:        1      2      3      4      5
 occup:     2.00   0.00   0.00   0.00   0.00
 CF+SFO     ----   ----   ----   ----   ----
 ------
      1:   50.01   5.27  35.16  -8.48   1.17
      2:   -1.40 -24.65   9.06  99.69  36.01
      3:   -0.20   0.60  -1.10   2.47   0.77
      4:    0.26   0.04   0.57  -1.14   1.98
      5:    0.33  -0.04  -0.37   1.28   0.31
      8:   45.36  66.02  40.73 -59.00 -17.10
      9:    2.93  46.96  12.62  40.94   5.30
     10:    0.45   6.21  -7.17  -6.96  -3.12
     11:   -0.96  -0.50  -0.23   7.63  14.51
     12:    0.45  -0.03   0.13   8.91  36.83
     13:    2.44   0.15  10.61  13.97  22.42


 Summation over all MOs, multiplied by occupation: Total SFO Gross Populations in this Irrep
 ===========================================================================================

     1.00   -0.03   -0.00    0.01    0.01    0.00    0.00    0.91    0.06    0.01   -0.02    0.01
     0.05   -0.00   -0.00    0.00    0.00    0.00


                                       === E1:2 ===


 SFO contributions (%) per orbital
 (multiplication by the orbital occupation yields the SFO Gross Populations)

 Orb.:        1      2      3      4      5
 occup:     2.00   0.00   0.00   0.00   0.00
 CF+SFO     ----   ----   ----   ----   ----
 ------
      1:   50.01   5.27  35.16  -8.48   1.17
      2:   -1.40 -24.65   9.06  99.69  36.01
      3:   -0.20   0.60  -1.10   2.47   0.77
      4:    0.26   0.04   0.57  -1.14   1.98
      5:    0.33  -0.04  -0.37   1.28   0.31
      8:   45.36  66.02  40.73 -59.00 -17.10
      9:    2.93  46.96  12.62  40.94   5.30
     10:    0.45   6.21  -7.17  -6.96  -3.12
     11:   -0.96  -0.50  -0.23   7.63  14.51
     12:    0.45  -0.03   0.13   8.91  36.83
     13:    2.44   0.15  10.61  13.97  22.42


 Summation over all MOs, multiplied by occupation: Total SFO Gross Populations in this Irrep
 ===========================================================================================

     1.00   -0.03   -0.00    0.01    0.01    0.00    0.00    0.91    0.06    0.01   -0.02    0.01
     0.05   -0.00   -0.00    0.00    0.00    0.00



 List of all MOs, ordered by energy, with the most significant SFO gross populations
 ===================================================================================

 Each percentage contribution in the table below corres ponds to the indicated SFO.
 In general, a SFO may be a linear combination of several Fragment Orbitals on the same,
 or on symmetry-related Fragments. Only the first 'member' of such a combination is
 specified here. A full definition of all SFOs is given in an earlier part of the output.
 The numbering of the SFOs in this table does NOT include the Core Orbitals, and starts
 from one for each symmetry representation, as in the SFO definition list earlier.

       E(eV)  Occ       MO           %     SFO (first member)   E(eV)  Occ   Fragment
 -------------------------------------------------------------------------------------

     -21.188  2.00     2 A1        63.33%     2 S             -18.694  2.00     1 N
                                   31.64%     1 S              -6.484  1.00     2 H
                                    4.90%     1 P:x            11.162  0.00     2 H
                                    2.16%     1 P:z            -6.963  1.00     1 N
                                   -1.40%     3 S              41.380  0.00     2 H
     -11.380  2.00     1 E1:1      50.01%     1 P:x            -6.963  1.00     1 N
                                   45.36%     1 S              -6.484  1.00     2 H
                                    2.93%     2 S               2.096  0.00     2 H
                                    2.44%     1 P:x            11.162  0.00     3 H
                                   -1.40%     2 P:x             7.772  0.00     1 N
     -11.380  2.00     1 E1:2      50.01%     1 P:y            -6.963  1.00     1 N
                                   45.36%     1 S              -6.484  1.00     3 H
                                    2.93%     2 S               2.096  0.00     3 H
                                    2.44%     1 P:y            11.162  0.00     2 H
                                   -1.40%     2 P:y             7.772  0.00     1 N
      -5.854  2.00     3 A1        82.46%     1 P:z            -6.963  1.00     1 N
                                    7.78%     1 P:z            11.162  0.00     2 H
                                    6.76%     2 S             -18.694  2.00     1 N
                                    1.53%     1 S              -6.484  1.00     2 H
      -0.636  0.00     4 A1        66.25%     2 S               2.096  0.00     2 H
                                   18.28%     1 S              -6.484  1.00     2 H
                                    8.80%     1 P:x            11.162  0.00     2 H
                                    2.82%     3 S              14.408  0.00     1 N
                                    2.08%     2 P:z             7.772  0.00     1 N
       1.104  0.00     2 E1:1      66.02%     1 S              -6.484  1.00     2 H
                                   46.96%     2 S               2.096  0.00     2 H
                                  -24.65%     2 P:x             7.772  0.00     1 N
                                    6.21%     3 S              41.380  0.00     2 H
                                    5.27%     1 P:x            -6.963  1.00     1 N
       1.104  0.00     2 E1:2      66.02%     1 S              -6.484  1.00     3 H
                                   46.96%     2 S               2.096  0.00     3 H
                                  -24.65%     2 P:y             7.772  0.00     1 N
                                    6.21%     3 S              41.380  0.00     3 H
                                    5.27%     1 P:y            -6.963  1.00     1 N



 =======================================================================
 Electrostatic potential at the Nuclei due to electrons and other nuclei
 =======================================================================
  
         Atom                  Potential
         ----                  ---------
     1)   N                  18.43906420
     2)   H                   1.06831132
     3)   H                   1.06826935
     4)   H                   1.06826935
 Mulliken charges used for AMS results%charges...


    =====================
     CALCULATION RESULTS
    =====================

Energy (hartree)            -0.70095953


--------------
Atomic charges
--------------
  Index   Atom    Charge
      1      N   -0.0497
      2      H    0.0166
      3      H    0.0166
      4      H    0.0166


Dipole moment vector    (Debye):    -0.00000000    0.00000000   -1.25486154
              magnitude (Debye):     1.25486154


AMS application finished. Exiting.
NORMAL TERMINATION
     Total cpu time:       6.80
  Total system time:       2.53
 Total elapsed time:      11.16
