

 Parallel Execution: Process Information
 ==============================================================================
 Rank   Node Name                              NodeID   MyNodeRank  NodeMaster
    0   yumans-mbp.home                           0          0          0
    1   yumans-mbp.home                           0          1         -1
    2   yumans-mbp.home                           0          2         -1
    3   yumans-mbp.home                           0          3         -1
    4   yumans-mbp.home                           0          4         -1
    5   yumans-mbp.home                           0          5         -1
    6   yumans-mbp.home                           0          6         -1
    7   yumans-mbp.home                           0          7         -1
    8   yumans-mbp.home                           0          8         -1
    9   yumans-mbp.home                           0          9         -1
 ==============================================================================


May use up to 15625MB of RAM as shared memory on node 0

 *******************************************************************************
 *                                                                             *
 *  --------------------------------                                           *
 *   Amsterdam Modeling Suite (AMS)              2022.103                      *
 *  --------------------------------                                           *
 *                                               r104886 2022-06-17            *
 *                                                                             *
 *                                                                             *
 *                              =================                              *
 *                              |               |                              *
 *                              |     A M S     |                              *
 *                              |               |                              *
 *                              =================                              *
 *                                                                             *
 *                                                                             *
 *   Online information and documentation:  https://www.scm.com/support/       *
 *   E-mail:  support@scm.com   info@scm.com                                   *
 *                                                                             *
 *   Scientific publications using AMS results must be properly referenced     *
 *   See the User Manuals (or the web site) for recommended citations          *
 *   The terms and conditions of the End User License Agreement apply to       *
 *   the use of AMS, https://www.scm.com/license-terms/                        *
 *                                                                             *
 **********************  x86_64_darwin_intel / openmpi  ************************
 
 Licensed to: Prof Visscher, Prof Bickelhaupt, Prof Fonseca Guerra / Vrije Universiteit, Theoretische Chemie / Amsterdam / NETHERLANDS 2022-12-13 09:59:29
 SCM User ID: u21794
  
 AMS 2022.103  RunTime: Aug25-2023 09:48:55  ShM Nodes: 1  Procs: 10

 AMS jobname: ams
 AMS jobid  : 1573899395

 Start   directory: /Users/yumanhordijk/ADF_DATA/DFT_EDA/tmp.yumanhordijk.40174.0.noindex/
 Results directory: /Users/yumanhordijk/ADF_DATA/DFT_EDA/NH3BH3.results/
 Scratch directory: /tmp/amstmp_ams_kid0.1573899395/


 Communication costs MPI_COMM_WORLD:      3.502 usec per message,   0.0275 usec per 8-byte item
 Communication costs for intra-node:     -0.611 usec per message,   0.0326 usec per 8-byte item

 RNG seed: -107035753 2053604772 -956202872 956562572 1978967334 605836351 1016794503 -1986157704



                     *************************************************************************
                     *  ADF 2022.103  RunTime: Aug25-2023 09:48:58  ShM Nodes: 1  Procs: 10  *
                     *************************************************************************
  
       ****************************
       * SINGLE POINT CALCULATION *
       ****************************
 
--------
Geometry
--------
Formula: H6BN
Atoms
  Index Symbol   x (angstrom)   y (angstrom)   z (angstrom)
      1      N     0.00000000     0.00000000    -0.81474153       region=Donor adf.f=Donor
      2      B    -0.00000000    -0.00000000     0.83567034       region=Acceptor adf.f=Acceptor
      3      H     0.47608351    -0.82460084    -1.14410295       region=Donor adf.f=Donor
      4      H     0.47608351     0.82460084    -1.14410295       region=Donor adf.f=Donor
      5      H    -0.95216703     0.00000000    -1.14410295       region=Donor adf.f=Donor
      6      H    -0.58149793     1.00718395     1.13712667       region=Acceptor adf.f=Acceptor
      7      H    -0.58149793    -1.00718395     1.13712667       region=Acceptor adf.f=Acceptor
      8      H     1.16299585    -0.00000000     1.13712667       region=Acceptor adf.f=Acceptor
 
Total System Charge             0.00000
Bonding info available!
 
 
----------------
ADF Engine Input
----------------
 
 Basis
 Type TZ2P
 Core None
 End
 Fragments
 Acceptor Acceptor.rkf
 Donor Donor.rkf
 End
 XC
 GGA OLYP
 End
 

 Title: *** (NO TITLE) ***

 *** adf ***



 ===========================
 A T T A C H E D   F I L E S
 ===========================
  



 ===============================
 M O D E L   P A R A M E T E R S
 ===============================
  
 DENSITY FUNCTIONAL POTENTIAL (scf)
    LDA:                               Exchange only                           == Not Default ==
    Gradient Corrections:              OPTX LYP                                == Not Default ==

 SPIN  (restricted / unrestr.)
    Molecule:                          Restricted                               
    Fragments:                         Restricted                               

 OTHER ASPECTS
    Relativistic Corrections:          scalar (ZORA,MAPA)                       

    Nuclear Charge Density Model:      Point Charge Nuclei                      
    Core Treatment:                    Frozen Orbital(s)                        

    Hyperfine or Zeeman Interaction:   ---                                      


 Fragment File(s)
 ----------------
 Donor:
         file : Donor.rkf
         jobid: 601282736
         title: *** adf ***
 Acceptor:
         file : Acceptor.rkf
         jobid: 71246404
         title: *** adf ***



 ===============
 G E O M E T R Y  ***  3D  Molecule  ***
 ===============
  

 ATOMS
 =====                            X Y Z                    CHARGE
                                (Angstrom)             Nucl     +Core       At.Mass
                       --------------------------    ----------------       -------
    1  N               0.0000    0.0000   -0.8147      7.00      7.00       14.0031
    2  B              -0.0000   -0.0000    0.8357      5.00      5.00       11.0093
    3  H               0.4761   -0.8246   -1.1441      1.00      1.00        1.0078
    4  H               0.4761    0.8246   -1.1441      1.00      1.00        1.0078
    5  H              -0.9522    0.0000   -1.1441      1.00      1.00        1.0078
    6  H              -0.5815    1.0072    1.1371      1.00      1.00        1.0078
    7  H              -0.5815   -1.0072    1.1371      1.00      1.00        1.0078
    8  H               1.1630   -0.0000    1.1371      1.00      1.00        1.0078


 FRAGMENTS
 =========                                     Atoms in this Fragment     Cart. coord.s (Angstrom)
                                               -------------------------------------------------------
    1  Donor                                             1  N            0.0000    0.0000   -0.8147
                                                         3  H            0.4761   -0.8246   -1.1441
                                                         4  H            0.4761    0.8246   -1.1441
                                                         5  H           -0.9522    0.0000   -1.1441
    2  Acceptor                                          6  H           -0.5815    1.0072    1.1371
                                                         7  H           -0.5815   -1.0072    1.1371
                                                         8  H            1.1630   -0.0000    1.1371
                                                         2  B           -0.0000   -0.0000    0.8357


 Interatomic Distance Matrix (Angstrom)
 --------------------------------------

   1)     0.000
   2)     1.650   0.000
   3)     1.008   2.197   0.000
   4)     1.008   2.197   1.649   0.000
   5)     1.008   2.197   1.649   1.649   0.000
   6)     2.272   1.201   3.111   2.521   2.521   0.000
   7)     2.272   1.201   2.521   3.111   2.521   2.014   0.000
   8)     2.272   1.201   2.521   2.521   3.111   2.014   2.014   0.000

 Min. Distance =    1.0075
 Max. Distance =    3.1109



 =====================================
 S Y M M E T R Y ,   E L E C T R O N S
 =====================================
  
 Symmetry: C(3V)

 Irreducible Representations, including subspecies
 -------------------------------------------------
 A1
 A2
 E1:1  E1:2


 Configuration of Valence Electrons
 ==================================
 ( determined in the SCF procedure )

 Total:   18

 Net Charge: 0 (Nuclei minus Electrons)

 Aufbau principle for MO occupations will be applied through SCF cycle no.     150
 Thereafter, the program will assign electrons to MOs that are spatially
 similar to the occupied MOs in a "reference" cycle ("KeepOrbitals").
 The reference cycle is always the PREVIOUS cycle: it will evolve with
 the SCF procedure.
1
 ***************************************************************************************************



                                      ****************************************
                                      *  B U I L D : (Fragments, Functions)  *
                                      ****************************************
  

 The individual fragments are copies of the corresponding 'Master' fragments defined on the fragment files.
 However, they may have been rotated (and translated) with respect to the Master. The local coordinate axes
 of each fragment (which define for instance the spatial orientation in the current molecule of a fragment
 P:x orbital) are not necessarily those of the molecule.
 The local frame (if different from the molecular one) is printed to enable an interpretation of the expan-
 sion of an MO in Fragment Orbitals.



                                            ***************************
                                            *  Fragment Type : Donor  *
                                            ***************************
  

 Fragment no.    1   (in the list of all fragments)
 -----------------
 Local Coordinate Axes:
   x=   -0.500000    0.866025    0.000000
   y=   -0.866025   -0.500000    0.000000
   z=    0.000000    0.000000    1.000000
 The actual fragment is obtained from the Master by a rotation over  120.00 degrees
 around the axis :  0.000  0.000  1.000

 Check Atomic Coordinates:

                  Master (on file)          After Computed Tranformation               As specified on Input
           ----------------------------     ----------------------------     ---------------------------------
     1)     0.00000   0.00000  -0.81474      0.00000   0.00000  -0.81474       1   0.00000   0.00000  -0.81474
     2)    -0.95217   0.00000  -1.14410      0.47608  -0.82460  -1.14410       3   0.47608  -0.82460  -1.14410
     3)     0.47608  -0.82460  -1.14410      0.47608   0.82460  -1.14410       4   0.47608   0.82460  -1.14410
     4)     0.47608   0.82460  -1.14410     -0.95217   0.00000  -1.14410       5  -0.95217   0.00000  -1.14410



                                           ******************************
                                           *  Fragment Type : Acceptor  *
                                           ******************************
  

 Fragment no.    2   (in the list of all fragments)
 -----------------
 Local Coordinate Axes:
   x=   -0.500000    0.866025   -0.000000
   y=   -0.866025   -0.500000   -0.000000
   z=   -0.000000    0.000000    1.000000
 The actual fragment is obtained from the Master by a rotation over  120.00 degrees
 around the axis : -0.000 -0.000  1.000

 Check Atomic Coordinates:

                  Master (on file)          After Computed Tranformation               As specified on Input
           ----------------------------     ----------------------------     ---------------------------------
     1)     1.16300   0.00000   1.13713     -0.58150   1.00718   1.13713       6  -0.58150   1.00718   1.13713
     2)    -0.58150   1.00718   1.13713     -0.58150  -1.00718   1.13713       7  -0.58150  -1.00718   1.13713
     3)    -0.58150  -1.00718   1.13713      1.16300  -0.00000   1.13713       8   1.16300  -0.00000   1.13713
     4)     0.00000   0.00000   0.83567     -0.00000  -0.00000   0.83567       2  -0.00000  -0.00000   0.83567



 =======
 S F O s  ***  (Symmetrized Fragment Orbitals)  ***
 =======
  
 SFOs are linear combinations of (valence) Fragment Orbitals (FOs), such that the SFOs transform as the
 irreducible representations of the (molecular) symmetry group. Each SFO is therefore characterized by
 an irrep of the molecule and by a few (or only one) generating FOs.
 The SFOs constitute a symmetry-adapted basis for the Fock matrix. The MO eigenvector coefficients in
 this basis provide a direct interpretation of the MOs in terms of Frontier Orbital Theory.

 The SFOs are combined with auxiliary Core Functions (CFs) to ensure orthogonalization on the (frozen)
 Core Orbitals (COs). The Core-orthogonalized SFOs (CSFOs) constitute the true Fock basis.

 The FOs, and hence also the (C)SFOs are combinations of the elementary basis functions (BAS). The basis
 functions that participate in the description of the SFOs depend on the irrep. The indices of the
 involved functions are printed below for each irrep.
 (The complete list of primitive basis functions is printed in another section)

 Total nr. of (C)SFOs (summation over all irreps) :   118

 NOTE: a (C)SFO that is defined as a combination of more than one FO is usually NOT normalized.



                                       === A1 ===
 Nr. of SFOs :   38
 Cartesian basis functions that participate in this irrep (total number =    98) :
      1     2     3     4     5     8    11    14    20    15
     18    30    23    28    21    24    31    43    55    32
     44    56    33    45    57    36    48    60    34    35
     46    47    58    42    54    66    39    41    51    53
     63    37    38    40    49    50    52    61    64    67
     79    91    68    80    92    69    81    93    72    84
     96    70    71    82    83    94    78    90   102    75
     77    87    89    99    73    74    76    85    86    88
     97   100   103   104   105   106   107   110   113   116
    122   117   120   132   125   130   123   126

    SFO  (index         Fragment          Generating    Expansion in Fragment Orbitals
  indx  incl.CFs)   Occup   Orb.Energy   FragmentType  Coeff.   Orbital     on Fragment
 --------------------------------------------------------------------------------------
     1       1      2.000     -13.992 au  Donor         1.00      1 A1              1
                        (    -380.751 eV)
     2       2      2.000      -0.779 au  Donor         1.00      2 A1              1
                        (     -21.188 eV)
     3       3      2.000      -0.215 au  Donor         1.00      3 A1              1
                        (      -5.854 eV)
     4       4       --        -0.023 au  Donor         1.00      4 A1              1
                        (      -0.636 eV)
     5       5       --         0.253 au  Donor         1.00      5 A1              1
                        (       6.882 eV)
     6       6       --         0.291 au  Donor         1.00      6 A1              1
                        (       7.917 eV)
     7       7       --         0.630 au  Donor         1.00      7 A1              1
                        (      17.146 eV)
     8       8       --         1.120 au  Donor         1.00      8 A1              1
                        (      30.466 eV)
     9       9       --         1.371 au  Donor         1.00      9 A1              1
                        (      37.304 eV)
    10      10       --         1.541 au  Donor         1.00     10 A1              1
                        (      41.927 eV)
    11      11       --         2.053 au  Donor         1.00     11 A1              1
                        (      55.876 eV)
    12      12       --         2.617 au  Donor         1.00     12 A1              1
                        (      71.203 eV)
    13      13       --         3.630 au  Donor         1.00     13 A1              1
                        (      98.773 eV)
    14      14       --         4.538 au  Donor         1.00     14 A1              1
                        (     123.484 eV)
    15      15       --         4.686 au  Donor         1.00     15 A1              1
                        (     127.503 eV)
    16      16       --         5.932 au  Donor         1.00     16 A1              1
                        (     161.425 eV)
    17      17       --         6.107 au  Donor         1.00     17 A1              1
                        (     166.175 eV)
    18      18       --         8.932 au  Donor         1.00     18 A1              1
                        (     243.047 eV)
    19      19       --        69.329 au  Donor         1.00     19 A1              1
                        (    1886.550 eV)
    20      20      2.000      -6.553 au  Acceptor      1.00      1 A1              2
                        (    -178.309 eV)
    21      21      2.000      -0.464 au  Acceptor      1.00      2 A1              2
                        (     -12.625 eV)
    22      22       --        -0.123 au  Acceptor      1.00      3 A1              2
                        (      -3.357 eV)
    23      23       --         0.007 au  Acceptor      1.00      4 A1              2
                        (       0.177 eV)
    24      24       --         0.119 au  Acceptor      1.00      5 A1              2
                        (       3.233 eV)
    25      25       --         0.240 au  Acceptor      1.00      6 A1              2
                        (       6.534 eV)
    26      26       --         0.415 au  Acceptor      1.00      7 A1              2
                        (      11.304 eV)
    27      27       --         0.766 au  Acceptor      1.00      8 A1              2
                        (      20.849 eV)
    28      28       --         1.148 au  Acceptor      1.00      9 A1              2
                        (      31.249 eV)
    29      29       --         1.564 au  Acceptor      1.00     10 A1              2
                        (      42.551 eV)
    30      30       --         1.852 au  Acceptor      1.00     11 A1              2
                        (      50.397 eV)
    31      31       --         2.431 au  Acceptor      1.00     12 A1              2
                        (      66.141 eV)
    32      32       --         2.646 au  Acceptor      1.00     13 A1              2
                        (      72.003 eV)
    33      33       --         3.435 au  Acceptor      1.00     14 A1              2
                        (      93.474 eV)
    34      34       --         3.654 au  Acceptor      1.00     15 A1              2
                        (      99.444 eV)
    35      35       --         4.462 au  Acceptor      1.00     16 A1              2
                        (     121.426 eV)
    36      36       --         5.122 au  Acceptor      1.00     17 A1              2
                        (     139.371 eV)
    37      37       --         6.953 au  Acceptor      1.00     18 A1              2
                        (     189.200 eV)
    38      38       --        29.828 au  Acceptor      1.00     19 A1              2
                        (     811.652 eV)



                                       === A2 ===
 Nr. of SFOs :    8
 Cartesian basis functions that participate in this irrep (total number =    38) :
     22    27    34    35    46    47    59    39    41    51
     53    65    37    38    40    49    50    52    62    70
     71    82    83    95    75    77    87    89   101    73
     74    76    85    86    88    98   124   129

    SFO  (index         Fragment          Generating    Expansion in Fragment Orbitals
  indx  incl.CFs)   Occup   Orb.Energy   FragmentType  Coeff.   Orbital     on Fragment
 --------------------------------------------------------------------------------------
     1       1       --         0.884 au  Donor         1.00      1 A2              1
                        (      24.068 eV)
     2       2       --         2.931 au  Donor         1.00      2 A2              1
                        (      79.745 eV)
     3       3       --         3.750 au  Donor         1.00      3 A2              1
                        (     102.053 eV)
     4       4       --         6.850 au  Donor         1.00      4 A2              1
                        (     186.398 eV)
     5       5       --         0.731 au  Acceptor      1.00      1 A2              2
                        (      19.896 eV)
     6       6       --         2.671 au  Acceptor      1.00      2 A2              2
                        (      72.689 eV)
     7       7       --         3.025 au  Acceptor      1.00      3 A2              2
                        (      82.309 eV)
     8       8       --         5.900 au  Acceptor      1.00      4 A2              2
                        (     160.552 eV)



                                       === E1:1 ===
 Nr. of SFOs :   36
 Cartesian basis functions that participate in this irrep (total number =    88) :
      6     9    12    17    15    18    26    23    28    21
     24    31    43    55    32    44    56    33    45    57
     36    48    60    34    35    46    47    58    42    54
     66    39    41    51    53    63    37    38    40    49
     50    52    61    64    67    79    91    68    80    92
     69    81    93    72    84    96    70    71    82    83
     94    78    90   102    75    77    87    89    99    73
     74    76    85    86    88    97   100   108   111   114
    119   117   120   128   125   130   123   126

    SFO  (index         Fragment          Generating    Expansion in Fragment Orbitals
  indx  incl.CFs)   Occup   Orb.Energy   FragmentType  Coeff.   Orbital     on Fragment
 --------------------------------------------------------------------------------------
     1       1      2.000      -0.418 au  Donor         0.50      1 E1:1            1
                        (     -11.380 eV)               0.87      1 E1:2            1
     2       2       --         0.041 au  Donor         0.50      2 E1:1            1
                        (       1.104 eV)               0.87      2 E1:2            1
     3       3       --         0.218 au  Donor         0.50      3 E1:1            1
                        (       5.933 eV)               0.87      3 E1:2            1
     4       4       --         0.449 au  Donor         0.50      4 E1:1            1
                        (      12.214 eV)               0.87      4 E1:2            1
     5       5       --         0.465 au  Donor         0.50      5 E1:1            1
                        (      12.666 eV)               0.87      5 E1:2            1
     6       6       --         1.054 au  Donor         0.50      6 E1:1            1
                        (      28.688 eV)               0.87      6 E1:2            1
     7       7       --         1.216 au  Donor         0.50      7 E1:1            1
                        (      33.082 eV)               0.87      7 E1:2            1
     8       8       --         1.823 au  Donor         0.50      8 E1:1            1
                        (      49.599 eV)               0.87      8 E1:2            1
     9       9       --         2.053 au  Donor         0.50      9 E1:1            1
                        (      55.858 eV)               0.87      9 E1:2            1
    10      10       --         2.293 au  Donor         0.50     10 E1:1            1
                        (      62.397 eV)               0.87     10 E1:2            1
    11      11       --         2.931 au  Donor         0.50     11 E1:1            1
                        (      79.750 eV)               0.87     11 E1:2            1
    12      12       --         3.086 au  Donor         0.50     12 E1:1            1
                        (      83.962 eV)               0.87     12 E1:2            1
    13      13       --         3.724 au  Donor         0.50     13 E1:1            1
                        (     101.339 eV)               0.87     13 E1:2            1
    14      14       --         4.315 au  Donor         0.50     14 E1:1            1
                        (     117.419 eV)               0.87     14 E1:2            1
    15      15       --         4.933 au  Donor         0.50     15 E1:1            1
                        (     134.245 eV)               0.87     15 E1:2            1
    16      16       --         5.212 au  Donor         0.50     16 E1:1            1
                        (     141.822 eV)               0.87     16 E1:2            1
    17      17       --         6.591 au  Donor         0.50     17 E1:1            1
                        (     179.359 eV)               0.87     17 E1:2            1
    18      18       --         8.177 au  Donor         0.50     18 E1:1            1
                        (     222.500 eV)               0.87     18 E1:2            1
    19      19      2.000      -0.302 au  Acceptor      0.50      1 E1:1            2
                        (      -8.212 eV)               0.87      1 E1:2            2
    20      20       --         0.069 au  Acceptor      0.50      2 E1:1            2
                        (       1.881 eV)               0.87      2 E1:2            2
    21      21       --         0.084 au  Acceptor      0.50      3 E1:1            2
                        (       2.293 eV)               0.87      3 E1:2            2
    22      22       --         0.363 au  Acceptor      0.50      4 E1:1            2
                        (       9.874 eV)               0.87      4 E1:2            2
    23      23       --         0.430 au  Acceptor      0.50      5 E1:1            2
                        (      11.705 eV)               0.87      5 E1:2            2
    24      24       --         0.727 au  Acceptor      0.50      6 E1:1            2
                        (      19.795 eV)               0.87      6 E1:2            2
    25      25       --         1.163 au  Acceptor      0.50      7 E1:1            2
                        (      31.648 eV)               0.87      7 E1:2            2
    26      26       --         1.529 au  Acceptor      0.50      8 E1:1            2
                        (      41.604 eV)               0.87      8 E1:2            2
    27      27       --         1.741 au  Acceptor      0.50      9 E1:1            2
                        (      47.378 eV)               0.87      9 E1:2            2
    28      28       --         1.978 au  Acceptor      0.50     10 E1:1            2
                        (      53.835 eV)               0.87     10 E1:2            2
    29      29       --         2.633 au  Acceptor      0.50     11 E1:1            2
                        (      71.640 eV)               0.87     11 E1:2            2
    30      30       --         2.678 au  Acceptor      0.50     12 E1:1            2
                        (      72.883 eV)               0.87     12 E1:2            2
    31      31       --         3.172 au  Acceptor      0.50     13 E1:1            2
                        (      86.323 eV)               0.87     13 E1:2            2
    32      32       --         3.412 au  Acceptor      0.50     14 E1:1            2
                        (      92.853 eV)               0.87     14 E1:2            2
    33      33       --         4.188 au  Acceptor      0.50     15 E1:1            2
                        (     113.954 eV)               0.87     15 E1:2            2
    34      34       --         4.397 au  Acceptor      0.50     16 E1:1            2
                        (     119.657 eV)               0.87     16 E1:2            2
    35      35       --         5.453 au  Acceptor      0.50     17 E1:1            2
                        (     148.371 eV)               0.87     17 E1:2            2
    36      36       --         6.400 au  Acceptor      0.50     18 E1:1            2
                        (     174.153 eV)               0.87     18 E1:2            2



                                       === E1:2 ===
 Nr. of SFOs :   36
 Cartesian basis functions that participate in this irrep (total number =    72) :
      7    10    13    19    16    29    25    22    27    31
     43    32    44    33    45    36    48    34    35    46
     47    59    42    54    39    41    51    53    65    37
     38    40    49    50    52    62    67    79    68    80
     69    81    72    84    70    71    82    83    95    78
     90    75    77    87    89   101    73    74    76    85
     86    88    98   109   112   115   121   118   131   127
    124   129

    SFO  (index         Fragment          Generating    Expansion in Fragment Orbitals
  indx  incl.CFs)   Occup   Orb.Energy   FragmentType  Coeff.   Orbital     on Fragment
 --------------------------------------------------------------------------------------
     1       1      2.000      -0.418 au  Donor        -0.87      1 E1:1            1
                        (     -11.380 eV)               0.50      1 E1:2            1
     2       2       --         0.041 au  Donor        -0.87      2 E1:1            1
                        (       1.104 eV)               0.50      2 E1:2            1
     3       3       --         0.218 au  Donor        -0.87      3 E1:1            1
                        (       5.933 eV)               0.50      3 E1:2            1
     4       4       --         0.449 au  Donor        -0.87      4 E1:1            1
                        (      12.214 eV)               0.50      4 E1:2            1
     5       5       --         0.465 au  Donor        -0.87      5 E1:1            1
                        (      12.666 eV)               0.50      5 E1:2            1
     6       6       --         1.054 au  Donor        -0.87      6 E1:1            1
                        (      28.688 eV)               0.50      6 E1:2            1
     7       7       --         1.216 au  Donor        -0.87      7 E1:1            1
                        (      33.082 eV)               0.50      7 E1:2            1
     8       8       --         1.823 au  Donor        -0.87      8 E1:1            1
                        (      49.599 eV)               0.50      8 E1:2            1
     9       9       --         2.053 au  Donor        -0.87      9 E1:1            1
                        (      55.858 eV)               0.50      9 E1:2            1
    10      10       --         2.293 au  Donor        -0.87     10 E1:1            1
                        (      62.397 eV)               0.50     10 E1:2            1
    11      11       --         2.931 au  Donor        -0.87     11 E1:1            1
                        (      79.750 eV)               0.50     11 E1:2            1
    12      12       --         3.086 au  Donor        -0.87     12 E1:1            1
                        (      83.962 eV)               0.50     12 E1:2            1
    13      13       --         3.724 au  Donor        -0.87     13 E1:1            1
                        (     101.339 eV)               0.50     13 E1:2            1
    14      14       --         4.315 au  Donor        -0.87     14 E1:1            1
                        (     117.419 eV)               0.50     14 E1:2            1
    15      15       --         4.933 au  Donor        -0.87     15 E1:1            1
                        (     134.245 eV)               0.50     15 E1:2            1
    16      16       --         5.212 au  Donor        -0.87     16 E1:1            1
                        (     141.822 eV)               0.50     16 E1:2            1
    17      17       --         6.591 au  Donor        -0.87     17 E1:1            1
                        (     179.359 eV)               0.50     17 E1:2            1
    18      18       --         8.177 au  Donor        -0.87     18 E1:1            1
                        (     222.500 eV)               0.50     18 E1:2            1
    19      19      2.000      -0.302 au  Acceptor     -0.87      1 E1:1            2
                        (      -8.212 eV)               0.50      1 E1:2            2
    20      20       --         0.069 au  Acceptor     -0.87      2 E1:1            2
                        (       1.881 eV)               0.50      2 E1:2            2
    21      21       --         0.084 au  Acceptor     -0.87      3 E1:1            2
                        (       2.293 eV)               0.50      3 E1:2            2
    22      22       --         0.363 au  Acceptor     -0.87      4 E1:1            2
                        (       9.874 eV)               0.50      4 E1:2            2
    23      23       --         0.430 au  Acceptor     -0.87      5 E1:1            2
                        (      11.705 eV)               0.50      5 E1:2            2
    24      24       --         0.727 au  Acceptor     -0.87      6 E1:1            2
                        (      19.795 eV)               0.50      6 E1:2            2
    25      25       --         1.163 au  Acceptor     -0.87      7 E1:1            2
                        (      31.648 eV)               0.50      7 E1:2            2
    26      26       --         1.529 au  Acceptor     -0.87      8 E1:1            2
                        (      41.604 eV)               0.50      8 E1:2            2
    27      27       --         1.741 au  Acceptor     -0.87      9 E1:1            2
                        (      47.378 eV)               0.50      9 E1:2            2
    28      28       --         1.978 au  Acceptor     -0.87     10 E1:1            2
                        (      53.835 eV)               0.50     10 E1:2            2
    29      29       --         2.633 au  Acceptor     -0.87     11 E1:1            2
                        (      71.640 eV)               0.50     11 E1:2            2
    30      30       --         2.678 au  Acceptor     -0.87     12 E1:1            2
                        (      72.883 eV)               0.50     12 E1:2            2
    31      31       --         3.172 au  Acceptor     -0.87     13 E1:1            2
                        (      86.323 eV)               0.50     13 E1:2            2
    32      32       --         3.412 au  Acceptor     -0.87     14 E1:1            2
                        (      92.853 eV)               0.50     14 E1:2            2
    33      33       --         4.188 au  Acceptor     -0.87     15 E1:1            2
                        (     113.954 eV)               0.50     15 E1:2            2
    34      34       --         4.397 au  Acceptor     -0.87     16 E1:1            2
                        (     119.657 eV)               0.50     16 E1:2            2
    35      35       --         5.453 au  Acceptor     -0.87     17 E1:1            2
                        (     148.371 eV)               0.50     17 E1:2            2
    36      36       --         6.400 au  Acceptor     -0.87     18 E1:1            2
                        (     174.153 eV)               0.50     18 E1:2            2



 ================================
 (Slater-type)  F U N C T I O N S  ***  (Basis and Fit)  ***
 ================================
  

 Atom Type    1  (N)
 ==============

 Valence Basis Sets:  10
 -----------------------
   1 S    8.740000
   1 S    5.900000
   2 S    5.150000
   2 S    2.500000
   2 S    1.500000
   2 P    3.680000
   2 P    1.880000
   2 P    1.000000
   3 D    2.200000
   4 F    3.300000

 Atom Type    2  (H)
 ==============

 Valence Basis Sets:   5
 -----------------------
   1 S    0.690000
   1 S    0.920000
   1 S    1.580000
   2 P    1.250000
   3 D    2.500000

 Atom Type    3  (H)
 ==============

 Valence Basis Sets:   5
 -----------------------
   1 S    0.690000
   1 S    0.920000
   1 S    1.580000
   2 P    1.250000
   3 D    2.500000

 Atom Type    4  (B)
 ==============

 Valence Basis Sets:  10
 -----------------------
   1 S    6.500000
   1 S    4.080000
   2 S    2.800000
   2 S    1.700000
   2 S    1.040000
   2 P    2.600000
   2 P    1.260000
   2 P    0.680000
   3 D    2.000000
   4 F    3.000000


 BAS: List of all Elementary Cartesian Basis Functions
 =====================================================

 The numbering in the list below (to the right of the function characteristics) is referred
 to in print-outs of MO eigenvectors and Mulliken populations in the BAS representation
 (as contrasted to the SFO representation).

 Notes:
 1. The functions are characterized by a polynomial prefactor (powers of x,y,z and r) and
    an exponential decay factor alpha.
 2. Since the basis sets are specific for an atom TYPE, the individual functions occur on
    all atoms of that type.
 3. The word 'Core' in the left margin signals that it is a Core Function (CF) : not a
    degree of freedom in the valence set, but only used to ensure orthogonalization of
    the other valence basis functions on the frozen Core Orbitals.


 (power of) X  Y  Z  R     Alpha  on Atom
            ==========     =====     ==========

 N                                    1
                                  ---------------------------------------------------------------------------
            0  0  0  0     8.740      1
            0  0  0  0     5.900      2
            0  0  0  1     5.150      3
            0  0  0  1     2.500      4
            0  0  0  1     1.500      5
            1  0  0  0     3.680      6
            0  1  0  0     3.680      7
            0  0  1  0     3.680      8
            1  0  0  0     1.880      9
            0  1  0  0     1.880     10
            0  0  1  0     1.880     11
            1  0  0  0     1.000     12
            0  1  0  0     1.000     13
            0  0  1  0     1.000     14
            2  0  0  0     2.200     15
            1  1  0  0     2.200     16
            1  0  1  0     2.200     17
            0  2  0  0     2.200     18
            0  1  1  0     2.200     19
            0  0  2  0     2.200     20
            3  0  0  0     3.300     21
            2  1  0  0     3.300     22
            2  0  1  0     3.300     23
            1  2  0  0     3.300     24
            1  1  1  0     3.300     25
            1  0  2  0     3.300     26
            0  3  0  0     3.300     27
            0  2  1  0     3.300     28
            0  1  2  0     3.300     29
            0  0  3  0     3.300     30

 H                                    2    3    4
                                  ---------------------------------------------------------------------------
            0  0  0  0     0.690     31   43   55
            0  0  0  0     0.920     32   44   56
            0  0  0  0     1.580     33   45   57
            1  0  0  0     1.250     34   46   58
            0  1  0  0     1.250     35   47   59
            0  0  1  0     1.250     36   48   60
            2  0  0  0     2.500     37   49   61
            1  1  0  0     2.500     38   50   62
            1  0  1  0     2.500     39   51   63
            0  2  0  0     2.500     40   52   64
            0  1  1  0     2.500     41   53   65
            0  0  2  0     2.500     42   54   66

 H                                    5    6    7
                                  ---------------------------------------------------------------------------
            0  0  0  0     0.690     67   79   91
            0  0  0  0     0.920     68   80   92
            0  0  0  0     1.580     69   81   93
            1  0  0  0     1.250     70   82   94
            0  1  0  0     1.250     71   83   95
            0  0  1  0     1.250     72   84   96
            2  0  0  0     2.500     73   85   97
            1  1  0  0     2.500     74   86   98
            1  0  1  0     2.500     75   87   99
            0  2  0  0     2.500     76   88  100
            0  1  1  0     2.500     77   89  101
            0  0  2  0     2.500     78   90  102

 B                                    8
                                  ---------------------------------------------------------------------------
            0  0  0  0     6.500    103
            0  0  0  0     4.080    104
            0  0  0  1     2.800    105
            0  0  0  1     1.700    106
            0  0  0  1     1.040    107
            1  0  0  0     2.600    108
            0  1  0  0     2.600    109
            0  0  1  0     2.600    110
            1  0  0  0     1.260    111
            0  1  0  0     1.260    112
            0  0  1  0     1.260    113
            1  0  0  0     0.680    114
            0  1  0  0     0.680    115
            0  0  1  0     0.680    116
            2  0  0  0     2.000    117
            1  1  0  0     2.000    118
            1  0  1  0     2.000    119
            0  2  0  0     2.000    120
            0  1  1  0     2.000    121
            0  0  2  0     2.000    122
            3  0  0  0     3.000    123
            2  1  0  0     3.000    124
            2  0  1  0     3.000    125
            1  2  0  0     3.000    126
            1  1  1  0     3.000    127
            1  0  2  0     3.000    128
            0  3  0  0     3.000    129
            0  2  1  0     3.000    130
            0  1  2  0     3.000    131
            0  0  3  0     3.000    132

 Total number of charge fitting functions (nprimf)       468
 Total number of Cartesian basis functions (naos)        132
 Total number of Cartesian core functions  (ncos)          0

1
 ***************************************************************************************************



                                              ***********************
                                              *  T E C H N I C A L  *
                                              ***********************
  



 =============================================================
 P A R A L L E L I Z A T I O N  and  V E C T O R I Z A T I O N
 =============================================================
  
 Nr of parallel processes:                               10
 Maximum vector length in NumInt loops:                 128



 =====================
 S C F   U P D A T E S
 =====================
  
 Max. nr. of cycles:                               300
 Convergence criterion:                              0.0000010000
   secondary criterion:                              0.0010000000

 Mix parameter (when DIIS does not apply):           0.2000000000
 Mixed ADIIS+SDIIS will be used                  
    Max number of expansion vectors:                10
    Pure ADIIS when Max([F,P]) is above              0.1000000000
    Pure SDIIS when Max([F,P]) is below              0.0010000000
 Automatic ElectronSmearing (in case of problematic SCF convergence) disabled



 =================
 P R E C I S I O N  ***  (General: NumInt, NeglectFunctionTails, ...)  ***
 =================
  

 NumInt:           Target precision:                 4.0000000000
 -------           Initial precision:                4.0000000000
                   Min. precision (optimization):    4.0000000000

 Neglect Functions:          Basis functions:        0.1000000000E-05
 ------------------          Fit functions:          0.1000000000E-05



 ===========================
 L I N E A R   S C A L I N G
 ===========================
  

 Cut-off radii density fit:                        0.1000000000E-07
 Overlap cut-off criterion AO matrix elements:     0.1000000000E-05
 Cut-offs for Coulomb potential and fitted density:0.1000000000E-07
 Cut-off criterion for Coulomb multipole terms:    0.1000000000E-07
 Progressive Convergence parameter:                 0.000000000    
1
 ***************************************************************************************************



                                            ***************************
                                            *  C O M P U T A T I O N  *
                                            ***************************
  

 Number of elements of the density matrix on this node (used, total):       465      8778



 ===========================================
 Numerical Integration : Fuzzy Cells (Becke)
 ===========================================
  
 Becke grid quality: NORMAL         
  
 Lebedev angular grid order:             min:  11 max:  23
 Nr. of radial points:                   min:  46 max:  55

 Total nr. of points:      14432
 Nr. of blocks:              113
 Block length:               128
 Nr. of dummy points:         32


 Test of Precision of the Numerical Integration Grid
 ===================================================

 Integral of the Total Core Density:                   0.00000000000000



 ========================
 Density Fitting (zlmFit)
 ========================
  
 ZlmFit Fit Quality: NORMAL         
  
 Max L-expansion:                        min:   6 max:   7
 Nr. of radial interpolation points:     min:  39 max:  48



 =====
 S C F  ***  ScaSCF  ***
 =====
  
 Initial density matrix is calculated as sum of fragments

 CYCLE    1
 SCF Error: norm([F,P])=      1.044055859225, max([F,P])=      0.806986769540
 orbitals (Q,E):
 ---------------
 A1 :1...15          ( 2.00   -14.0835)  ( 2.00    -6.4772)  ( 2.00    -0.8557)  ( 2.00    -0.4644)
                     ( 2.00    -0.3244)  ( 0.00    -0.0349)  ( 0.00     0.0299)  ( 0.00     0.0818)
                     ( 0.00     0.2008)  ( 0.00     0.2555)  ( 0.00     0.3622)  ( 0.00     0.4550)
                     ( 0.00     0.5528)  ( 0.00     0.8804)  ( 0.00     1.1715)
 A2 :1...8           ( 0.00     0.7321)  ( 0.00     0.8925)  ( 0.00     2.6760)  ( 0.00     2.9376)
                     ( 0.00     3.0602)  ( 0.00     3.7113)  ( 0.00     5.9298)  ( 0.00     6.8555)
 E1 :1...12          ( 4.00    -0.4805)  ( 4.00    -0.2597)  ( 0.00     0.0236)  ( 0.00     0.0920)
                     ( 0.00     0.1250)  ( 0.00     0.2060)  ( 0.00     0.3870)  ( 0.00     0.4330)
                     ( 0.00     0.4634)  ( 0.00     0.7207)  ( 0.00     0.7923)  ( 0.00     1.1704)

 CYCLE    2
   MIX coefficients:  0.8000  0.2000
 SCF Error: norm([F,P])=      0.128342681228, max([F,P])=      0.034342097103
 orbitals (Q,E):
 ---------------
 A1 :1...6           ( 2.00   -14.0840)  ( 2.00    -6.4628)  ( 2.00    -0.8619)  ( 2.00    -0.4601)
                     ( 2.00    -0.3187)  ( 0.00    -0.0397)
 A2 :1...1           ( 0.00     0.7364)
 E1 :1...3           ( 4.00    -0.4873)  ( 4.00    -0.2506)  ( 0.00     0.0197)

 CYCLE    3
  SDIIS (wt  0.000): -1.7357  2.7357
 A-DIIS (wt  1.000):  0.0000  1.0000
  DIIS coefficients:  0.0000  1.0000
 SCF Error: norm([F,P])=      0.083968511942, max([F,P])=      0.022868895141
 orbitals (Q,E):
 ---------------
 A1 :1...6           ( 2.00   -14.0894)  ( 2.00    -6.4248)  ( 2.00    -0.8868)  ( 2.00    -0.4524)
                     ( 2.00    -0.2995)  ( 0.00    -0.0594)
 A2 :1...1           ( 0.00     0.7449)
 E1 :1...3           ( 4.00    -0.5136)  ( 4.00    -0.2232)  ( 0.00     0.0039)

 CYCLE    4
  SDIIS (wt  0.853):  1.8574 -2.0000  1.1426
 A-DIIS (wt  0.147):  0.0000  0.3221  0.6779
  DIIS coefficients:  1.5839 -1.6580  1.0742
 SCF Error: norm([F,P])=      0.065889559177, max([F,P])=      0.015580356316
 orbitals (Q,E):
 ---------------
 A1 :1...6           ( 2.00   -14.0957)  ( 2.00    -6.4528)  ( 2.00    -0.8820)  ( 2.00    -0.4600)
                     ( 2.00    -0.3121)  ( 0.00    -0.0549)
 A2 :1...1           ( 0.00     0.7399)
 E1 :1...3           ( 4.00    -0.5083)  ( 4.00    -0.2380)  ( 0.00     0.0073)

 CYCLE    5
  SDIIS (wt  0.980):  0.0121  0.0936  0.2116  0.6827
 A-DIIS (wt  0.020):  0.0000  0.0000  0.0000  1.0000
  DIIS coefficients:  0.0119  0.0917  0.2074  0.6890
 SCF Error: norm([F,P])=      0.010395250133, max([F,P])=      0.002984723551
 orbitals (Q,E):
 ---------------
 A1 :1...6           ( 2.00   -14.0916)  ( 2.00    -6.4471)  ( 2.00    -0.8798)  ( 2.00    -0.4575)
                     ( 2.00    -0.3099)  ( 0.00    -0.0543)
 A2 :1...1           ( 0.00     0.7409)
 E1 :1...3           ( 4.00    -0.5064)  ( 4.00    -0.2360)  ( 0.00     0.0078)

 CYCLE    6
  SDIIS (wt  0.998): -0.1310  0.2084  0.0411  0.3998  0.4817
 A-DIIS (wt  0.002):  0.0000  0.0000  0.0000  0.0000  1.0000
  DIIS coefficients: -0.1307  0.2080  0.0411  0.3989  0.4828
 SCF Error: norm([F,P])=      0.003706315892, max([F,P])=      0.001210160123
 orbitals (Q,E):
 ---------------
 A1 :1...6           ( 2.00   -14.0932)  ( 2.00    -6.4471)  ( 2.00    -0.8805)  ( 2.00    -0.4579)
                     ( 2.00    -0.3101)  ( 0.00    -0.0544)
 A2 :1...1           ( 0.00     0.7409)
 E1 :1...3           ( 4.00    -0.5069)  ( 4.00    -0.2359)  ( 0.00     0.0077)

 CYCLE    7
  SDIIS (wt  1.000): -0.0145  0.0215  0.0040  0.0771  0.2018  0.7102
  DIIS coefficients: -0.0145  0.0215  0.0040  0.0771  0.2018  0.7102
 SCF Error: norm([F,P])=      0.000814710450, max([F,P])=      0.000245600544
 orbitals (Q,E):
 ---------------
 A1 :1...6           ( 2.00   -14.0930)  ( 2.00    -6.4474)  ( 2.00    -0.8804)  ( 2.00    -0.4579)
                     ( 2.00    -0.3101)  ( 0.00    -0.0544)
 A2 :1...1           ( 0.00     0.7408)
 E1 :1...3           ( 4.00    -0.5069)  ( 4.00    -0.2360)  ( 0.00     0.0077)

 CYCLE    8
  SDIIS (wt  1.000):  0.0021 -0.0028  0.0011  0.0064  0.0252  0.1308  0.8373
  DIIS coefficients:  0.0021 -0.0028  0.0011  0.0064  0.0252  0.1308  0.8373
 SCF Error: norm([F,P])=      0.000058645260, max([F,P])=      0.000014876535
 orbitals (Q,E):
 ---------------
 A1 :1...6           ( 2.00   -14.0930)  ( 2.00    -6.4474)  ( 2.00    -0.8804)  ( 2.00    -0.4579)
                     ( 2.00    -0.3101)  ( 0.00    -0.0544)
 A2 :1...1           ( 0.00     0.7408)
 E1 :1...3           ( 4.00    -0.5069)  ( 4.00    -0.2360)  ( 0.00     0.0077)

 CYCLE    9
  SDIIS (wt  1.000):  0.0002 -0.0004 -0.0001  0.0002  0.0036  0.0207  0.2357  0.7401
  DIIS coefficients:  0.0002 -0.0004 -0.0001  0.0002  0.0036  0.0207  0.2357  0.7401
 SCF Error: norm([F,P])=      0.000013621280, max([F,P])=      0.000003230617
 orbitals (Q,E):
 ---------------
 A1 :1...6           ( 2.00   -14.0930)  ( 2.00    -6.4474)  ( 2.00    -0.8804)  ( 2.00    -0.4579)
                     ( 2.00    -0.3101)  ( 0.00    -0.0544)
 A2 :1...1           ( 0.00     0.7408)
 E1 :1...3           ( 4.00    -0.5069)  ( 4.00    -0.2360)  ( 0.00     0.0077)

 CYCLE   10
  SDIIS (wt  1.000):  0.0000 -0.0000 -0.0000 -0.0001  0.0003  0.0014  0.0249  0.1250  0.8485
  DIIS coefficients:  0.0000 -0.0000 -0.0000 -0.0001  0.0003  0.0014  0.0249  0.1250  0.8485
 SCF Error: norm([F,P])=      0.000000908961, max([F,P])=      0.000000224232
 orbitals (Q,E):
 ---------------
 A1 :1...6           ( 2.00   -14.0930)  ( 2.00    -6.4474)  ( 2.00    -0.8804)  ( 2.00    -0.4579)
                     ( 2.00    -0.3101)  ( 0.00    -0.0544)
 A2 :1...1           ( 0.00     0.7408)
 E1 :1...3           ( 4.00    -0.5069)  ( 4.00    -0.2360)  ( 0.00     0.0077)

 SCF CONVERGED

 CYCLE   11
1
 ***************************************************************************************************



                                                *******************
                                                *  R E S U L T S  *
                                                *******************
  
 *** Using FIT density in Focky
  SDIIS (wt  1.000):  0.0000 -0.0000 -0.0000 -0.0000 -0.0000 -0.0000 -0.0001  0.0009  0.0712  0.9281
  DIIS coefficients:  0.0000 -0.0000 -0.0000 -0.0000 -0.0000 -0.0000 -0.0001  0.0009  0.0712  0.9281
 SCF Error: norm([F,P])=      0.000000090100, max([F,P])=      0.000000024898

 Scaled ZORA Orbital Energies, per Irrep and Spin:
 =================================================
                        Occup              E (au)              E (eV)       Diff (eV) with prev. cycle
                        -----      --------------------        ------       --------------------------
 A1
               1        2.000     -0.14092970270327E+02      -383.489              -2.94E-07
               2        2.000     -0.64474045789496E+01      -175.443              -1.24E-07
               3        2.000     -0.88043228050318E+00       -23.958              -3.25E-07
               4        2.000     -0.45790009799300E+00       -12.460              -5.02E-08
               5        2.000     -0.31014476062831E+00        -8.439              -1.21E-07
               6        0.000     -0.54420343168567E-01        -1.481
               7        0.000      0.42740527960547E-01         1.163
               8        0.000      0.94426950964605E-01         2.569
               9        0.000      0.18366929651831E+00         4.998
              10        0.000      0.25857963517406E+00         7.036
              11        0.000      0.37878623035793E+00        10.307
              12        0.000      0.44537195330284E+00        12.119
              13        0.000      0.56251863809614E+00        15.307
              14        0.000      0.89152893703264E+00        24.260
              15        0.000      0.11630268389198E+01        31.648
 A2
               1        0.000      0.74084614131517E+00        20.159
               2        0.000      0.87293768754234E+00        23.754
               3        0.000      0.26899996483011E+01        73.199
               4        0.000      0.29153460399253E+01        79.331
               5        0.000      0.30877418502652E+01        84.022
               6        0.000      0.36764648923438E+01       100.042
               7        0.000      0.59543650940444E+01       162.027
               8        0.000      0.68345648872532E+01       185.978
 E1
               1        4.000     -0.50689875065078E+00       -13.793              -2.80E-07
               2        4.000     -0.23601465410641E+00        -6.422               1.76E-07
               3        0.000      0.77243711551487E-02         0.210
               4        0.000      0.10300562153481E+00         2.803
               5        0.000      0.13189511827286E+00         3.589
               6        0.000      0.18820095686314E+00         5.121
               7        0.000      0.38635686774555E+00        10.513
               8        0.000      0.43508003454286E+00        11.839
               9        0.000      0.45833261141931E+00        12.472
              10        0.000      0.72421073902793E+00        19.707
              11        0.000      0.80584847447110E+00        21.928
              12        0.000      0.11519547035321E+01        31.346
  
 HOMO :        2 E1               -0.23601465410641E+00
 LUMO :        6 A1               -0.54420343168567E-01
  


 Orbital Energies, all Irreps
 ========================================

 Irrep        no.  (spin)   Occup              E (au)                E (eV)
 ---------------------------------------------------------------------------
 A1            1             2.00       -0.14092970270327E+02      -383.4892
 A1            2             2.00       -0.64474045789496E+01      -175.4428
 A1            3             2.00       -0.88043228050318E+00       -23.9578
 E1            1             4.00       -0.50689875065078E+00       -13.7934
 A1            4             2.00       -0.45790009799300E+00       -12.4601
 A1            5             2.00       -0.31014476062831E+00        -8.4395
 E1            2             4.00       -0.23601465410641E+00        -6.4223
 A1            6             0.00       -0.54420343168567E-01        -1.4809
 E1            3             0.00        0.77243711551487E-02         0.2102
 A1            7             0.00        0.42740527960547E-01         1.1630
 A1            8             0.00        0.94426950964605E-01         2.5695
 E1            4             0.00        0.10300562153481E+00         2.8029
 E1            5             0.00        0.13189511827286E+00         3.5890
 A1            9             0.00        0.18366929651831E+00         4.9979
 E1            6             0.00        0.18820095686314E+00         5.1212
 A1           10             0.00        0.25857963517406E+00         7.0363
 A1           11             0.00        0.37878623035793E+00        10.3073
 E1            7             0.00        0.38635686774555E+00        10.5133
 E1            8             0.00        0.43508003454286E+00        11.8391
 A1           12             0.00        0.44537195330284E+00        12.1192
 E1            9             0.00        0.45833261141931E+00        12.4719
 A1           13             0.00        0.56251863809614E+00        15.3069
 E1           10             0.00        0.72421073902793E+00        19.7068
 A2            1             0.00        0.74084614131517E+00        20.1594
 E1           11             0.00        0.80584847447110E+00        21.9283
 A2            2             0.00        0.87293768754234E+00        23.7538
 A1           14             0.00        0.89152893703264E+00        24.2597
 E1           12             0.00        0.11519547035321E+01        31.3463
 A1           15             0.00        0.11630268389198E+01        31.6476
 A1           16             0.00        0.12063759985814E+01        32.8272
 E1           13             0.00        0.12415943981178E+01        33.7855
 E1           14             0.00        0.13548405176744E+01        36.8671
 A1           17             0.00        0.14334438066884E+01        39.0060
 A1           18             0.00        0.15417121598762E+01        41.9521
 A1           19             0.00        0.16399331642480E+01        44.6249
 E1           15             0.00        0.16486689949744E+01        44.8626
 E1           16             0.00        0.18011942743995E+01        49.0130
 E1           17             0.00        0.19330598782596E+01        52.6012
 A1           20             0.00        0.19448838013793E+01        52.9230
 E1           18             0.00        0.20577873685214E+01        55.9952
 E1           19             0.00        0.22191491860149E+01        60.3861
 A1           21             0.00        0.23584201499698E+01        64.1759
 E1           20             0.00        0.24763125270787E+01        67.3839
 A1           22             0.00        0.25040640391059E+01        68.1390
 A2            3             0.00        0.26899996483011E+01        73.1986
 E1           21             0.00        0.27662639331371E+01        75.2739
 E1           22             0.00        0.28021057104330E+01        76.2492
 A1           23             0.00        0.28104295379859E+01        76.4757
 E1           23             0.00        0.28901027081290E+01        78.6437
 A2            4             0.00        0.29153460399253E+01        79.3306
 A1           24             0.00        0.29877914015589E+01        81.3019
 A2            5             0.00        0.30877418502652E+01        84.0217
 E1           24             0.00        0.32147946552793E+01        87.4790
 A1           25             0.00        0.32763780082973E+01        89.1548
 E1           25             0.00        0.33847266661188E+01        92.1031
 E1           26             0.00        0.35283356865032E+01        96.0109
 A1           26             0.00        0.35641179633571E+01        96.9846
 A2            6             0.00        0.36764648923438E+01       100.0417
 E1           27             0.00        0.37653204988264E+01       102.4596
 A1           27             0.00        0.38307092183852E+01       104.2389
 A1           28             0.00        0.42451312472055E+01       115.5159
 E1           28             0.00        0.43091802362813E+01       117.2588
 E1           29             0.00        0.45990494717081E+01       125.1465
 A1           29             0.00        0.46195264645138E+01       125.7037
 E1           30             0.00        0.46415674250728E+01       126.3035
 A1           30             0.00        0.48039833035513E+01       130.7230
 E1           31             0.00        0.49859842736682E+01       135.6755
 A1           31             0.00        0.51135946666229E+01       139.1480
 E1           32             0.00        0.53543213085675E+01       145.6985
 E1           33             0.00        0.57791422875788E+01       157.2585
 A1           32             0.00        0.58997452304292E+01       160.5402
 A2            7             0.00        0.59543650940444E+01       162.0265
 A1           33             0.00        0.62627827309012E+01       170.4190
 A1           34             0.00        0.64573042983089E+01       175.7122
 E1           34             0.00        0.66273855084061E+01       180.3403
 E1           35             0.00        0.67358547365177E+01       183.2919
 A2            8             0.00        0.68345648872532E+01       185.9780
 A1           35             0.00        0.80051807822589E+01       217.8321
 E1           36             0.00        0.86343313647183E+01       234.9521
 A1           36             0.00        0.95426155179102E+01       259.6678
 A1           37             0.00        0.30969959049108E+02       842.7355
 A1           38             0.00        0.71106778076041E+02      1934.9139


 All Electron Calculation, thus no Orbital Energies of the Core Orbitals are calculated


 Fit test: (difference of exact and fit density, squared integrated, result summed over spins)
         Sum-of-Fragments:                             0.00007189074831
         Orthogonalized Fragments:                     0.00007561586809
         SCF:                                          0.00007550377153



 ==========================
 Electron Density at Nuclei
 ==========================
  
 The electron density is calculated at points on a small sphere around the center of a nucleus.
 The printed electron density is the average electron density on these points.
 The radius of the sphere is the printed approximate finite nuclear radius.
 Note: ZORA-4 density is used, which includes small component density

         Atom        Nuclear Radius (Angstrom)             Electron Density (a.u.)
         ----        -------------------------             -----------------------
     1)   N                 0.0000333706                              205.52290
     2)   B                 0.0000313614                               71.41575
     3)   H                 0.0000181514                                0.50411
     4)   H                 0.0000181514                                0.50411
     5)   H                 0.0000181514                                0.50411
     6)   H                 0.0000181514                                0.49558
     7)   H                 0.0000181514                                0.49558
     8)   H                 0.0000181514                                0.49558



 =======================================
 M U L L I K E N   P O P U L A T I O N S
 =======================================
  
 The survey below gives for each atom:
 a) the total charge (Z minus electrons)
 b) the net spin polarization (nr of electrons spin-A minus spin-B)
 c) for each spin the atomic electron valence density (integrated) per L-value.

 Atom              Charge    Spin density          S         P         D         F
 ----              ------    ------------       ------    ------    ------    ------
 1 N               0.3752                       3.3282    3.2590    0.0355    0.0021
 2 B               0.6237                       2.5618    1.7615    0.0500    0.0030
 3 H              -0.0140                       0.8970    0.1065    0.0105    0.0000
 4 H              -0.0140                       0.8970    0.1065    0.0105    0.0000
 5 H              -0.0140                       0.8970    0.1065    0.0105    0.0000
 6 H              -0.3190                       1.2782    0.0384    0.0024    0.0000
 7 H              -0.3190                       1.2782    0.0384    0.0024    0.0000
 8 H              -0.3190                       1.2782    0.0384    0.0024    0.0000

 Populations of individual BAS functions
 ----------------------------------------
 1 N            0.5237  1.4830 -0.0792  1.0464  0.3544  0.1643  0.1643  0.1833  0.9406  0.9406
                1.0098 -0.1198 -0.1198  0.0956  0.0072  0.0055  0.0107  0.0072  0.0107 -0.0057
                0.0006  0.0001 -0.0001  0.0006  0.0002 -0.0002  0.0004 -0.0001 -0.0002  0.0008
 3 H            0.0143  0.5626  0.3201  0.0326  0.0319  0.0420 -0.0006  0.0021  0.0012  0.0082
                0.0027 -0.0030
 4 H            0.0143  0.5626  0.3201  0.0326  0.0319  0.0420 -0.0006  0.0021  0.0012  0.0082
                0.0027 -0.0030
 5 H            0.0143  0.5626  0.3201  0.0315  0.0330  0.0420  0.0118  0.0036  0.0034 -0.0057
                0.0005 -0.0030
 6 H            0.3716  0.5915  0.3151  0.0142  0.0166  0.0076 -0.0015  0.0005  0.0002  0.0048
                0.0004 -0.0020
 7 H            0.3716  0.5915  0.3151  0.0142  0.0166  0.0076 -0.0015  0.0005  0.0002  0.0048
                0.0004 -0.0020
 8 H            0.3716  0.5915  0.3151  0.0178  0.0130  0.0076  0.0076  0.0010  0.0006 -0.0049
                0.0001 -0.0020
 2 B            0.4673  1.5438 -0.1631  0.9948 -0.2811  0.1073  0.1073  0.0580  0.7072  0.7072
                0.3976 -0.1175 -0.1175 -0.0881  0.0103  0.0085  0.0055  0.0103  0.0055  0.0099
                0.0003  0.0000 -0.0014  0.0005  0.0001  0.0004  0.0001 -0.0014  0.0004  0.0039

 Gross Charges per Atom (Z minus electrons)
 ==========================================
             0.3752    0.6237   -0.0140   -0.0140   -0.0140   -0.3190   -0.3190   -0.3190
 Net Total:  0.00000000


 Atom-Atom Population Matrix (off-diagonal elements not doubled)
 ===============================================================

     1 :     5.3288
     2 :     0.2600    3.1438
     3 :     0.3762   -0.0302    0.8100
     4 :     0.3762   -0.0302   -0.0693    0.8100
     5 :     0.3762   -0.0302   -0.0693   -0.0693    0.8100
     6 :    -0.0309    0.3544    0.0134   -0.0084   -0.0084    1.1147
     7 :    -0.0309    0.3544   -0.0084    0.0134   -0.0084   -0.0579    1.1147
     8 :    -0.0309    0.3544   -0.0084   -0.0084    0.0134   -0.0579   -0.0579    1.1147


 Frag-Frag Population Matrix (off-diagonal elements not doubled)
 ===============================================================

     1 :     9.6003
     2 :     0.0666    8.2665



 =================================================
 H I R S H F E L D   C H A R G E   A N A L Y S I S
 =================================================
  
 For each fragment: the (numerical) integral of rho(scf) * rho(fragment)/rho(sum-of-fragments)
 (nuclear charges are included, electrons are counted negative)

 The fragments and their ordering are defined in the early G E O M E T R Y output section.
 If you use single-atom fragments, this usually implies that all atoms of the same
 chemical type are grouped together. This may not be the order in which you listed them
 in the input file!

    1  Donor                     0.1730
    2  Acceptor                 -0.1730

 Sum of these charges (accuracy NumInt/Tails) =           0.00001129



 =============================
 V O R O N O I   C H A R G E S
 =============================
  
 For each atom: the (numerical) integral of the total electronic charge density in its Voronoi cell,
 i.e. the region of space that is closer to that atom than to any other atom.
 (cf. Wigner-Seitz cells in crystals)

 Within the Voronoi cell the subintegrals over the atomic sphere and the remaining part are evaluated
 separately to give the numbers of electrons (negative charge) in these regions.
 The net total charge in the cell (including the nuclear charge) is also given.

 Values are provided for
    a) the Initial (sum-of-fragments) density
    b) the Orthogonalized-Fragments density
    c) the SCF density
    d) the Voronoi Deformation Density (VDD): the difference SCF-Initial for the complete atomic cell


  Atom                Initial                    OrthFrag                   SCF
             Sphere RestCell NetTotal   Sphere RestCell NetTotal   Sphere RestCell NetTotal      VDD
 -----       ------------------------   ------------------------   ------------------------    -----
    1 N      -2.342   -3.175    1.483   -2.358   -3.216    1.426   -2.344   -3.203    1.454   -0.029
    2 B      -1.981   -1.645    1.374   -1.979   -1.570    1.452   -1.981   -1.689    1.330   -0.044
    3 H      -0.111   -1.330   -0.441   -0.111   -1.329   -0.441   -0.110   -1.251   -0.361    0.080
    4 H      -0.111   -1.330   -0.441   -0.111   -1.329   -0.441   -0.110   -1.251   -0.361    0.080
    5 H      -0.111   -1.330   -0.441   -0.111   -1.329   -0.441   -0.110   -1.251   -0.361    0.080
    6 H      -0.105   -1.406   -0.511   -0.109   -1.410   -0.519   -0.107   -1.460   -0.567   -0.056
    7 H      -0.105   -1.406   -0.511   -0.109   -1.410   -0.519   -0.107   -1.460   -0.567   -0.056
    8 H      -0.105   -1.406   -0.511   -0.109   -1.410   -0.519   -0.107   -1.460   -0.567   -0.056
 ---------------------------------------------------------------------------------------------------
 Total NetCharge:              -0.000                      0.000                      0.000    0.000
 (accuracy NumInt/Tails)

 Remark: the 'NetTotal' Voronoi charges often do not match the Mulliken and/or Hirshfeld charges very
 well. This is caused by the fact that chemically different atoms are not treated in accordance with
 their relative sizes. (Voronoi cells are defined by boundary planes halfway between the atoms.)
 However, the CHANGES in charge, comparing 'Initial' to 'SCF' for instance, do give a fair indication
 of the flow of charge caused by the relaxation from sum-of-fragments to self-consistency.

 Warning: the absolute accuracy of the VDD charges obtained using the Fuzzy Cells (Becke) integration
 scheme is much poorer than the one obtained with an 'equivalent' Voronoi integration grid. 



 =================================================================
 M U L T I P O L E   D E R I V E D   C H A R G E   A N A L Y S I S
 =================================================================

 This charge analysis uses the atomic multipoles (obtained from the fitted density) up to some level X,
 and reconstructs these multipoles exactly (up to level X) by distributing charges over all atoms.
 This is achieved by using Lagrange multipliers and a weight function to keep the multipoles local.

 Dummy atoms can be included (by setting INCDUM in MDC-block to 1) to obtain a fractional charge.
 This is generally useful and necessary only for small symmetrical molecules, when there are not
 enough degrees of freedom to reconstruct the multipoles.

 Since the atomic multipoles are reconstructed up to level X,
 the molecular multipoles are represented also up to level X.
 The recommended level is to reconstruct up to quadrupole : -> MDC-q charges.

 See: M. Swart, P.Th. van Duijnen, J.G. Snijders, J.Comput.Chem., (2001), p. 79-88.

 ------------------------------------------------------------- 
 Atomic electronic multipole moments from SCF equations (a.u.)
 ------------------------------------------------------------- 

   atom        charge        dip-x     dip-y     dip-z      quad-xx   quad-xy   quad-xz   quad-yy   quad-yz   quad-zz
 --------------------------------------------------------------------------------------------------------------------
    1 N      0.200873    -0.000112 -0.000000 -0.169748     0.134493 -0.000000 -0.000148  0.135399  0.000000 -0.269891
    2 B      0.259804    -0.000441  0.000000 -0.097630    -0.080720  0.000000  0.000698 -0.078521 -0.000000  0.159240
    3 H      0.058266     0.034742 -0.060141 -0.012729    -0.004223 -0.060577 -0.029267  0.101006  0.050677 -0.096782
    4 H      0.058266     0.034742  0.060141 -0.012729    -0.004223  0.060577 -0.029267  0.101006 -0.050677 -0.096782
    5 H      0.058287    -0.069360 -0.000000 -0.012769     0.153896  0.000000  0.058465 -0.056831 -0.000000 -0.097065
    6 H     -0.211847     0.047911 -0.083079 -0.028623    -0.082803 -0.109747 -0.026575  0.107513  0.046133 -0.024710
    7 H     -0.211847     0.047911  0.083079 -0.028623    -0.082803  0.109747 -0.026575  0.107513 -0.046133 -0.024710
    8 H     -0.211801    -0.096065 -0.000000 -0.028660     0.202974 -0.000000  0.053349 -0.177945 -0.000000 -0.025028

 --------------------------------------- 
 Multipole derived atomic charges (a.u.)
 --------------------------------------- 

 The MDC-m charges are just the Monopole terms in the multipole expansion, while for the MDC-d charges
 also the Dipoles are reconstructed. The usually preferred charges are the MDC-q charges.
 These reconstruct the Monopoles, Dipoles and Quadrupoles (both atomic AND molecular).

        Atom    Level:     MDC-m        MDC-d        MDC-q
 ---------------------------------------------------------
     1     N            0.200873     0.086351    -0.689358
     2     B            0.259804     0.269237     0.308629
     3     H            0.058266     0.120781     0.351887
     4     H            0.058266     0.120781     0.351887
     5     H            0.058287     0.120818     0.347773
     6     H           -0.211847    -0.239240    -0.219336
     7     H           -0.211847    -0.239240    -0.219336
     8     H           -0.211801    -0.239487    -0.232147

 ------------------------------------------------ 
 Average absolute deviations in atomic multipoles
 ------------------------------------------------ 

 Stated here are the average differences between the atomic multipoles
 and the reconstructed atomic multipoles (from the distributed charges).
 If these values are not zero, this means there are not enough degrees of freedom,
 to be able to reconstruct the atomic multipoles. (This usually happens only
 for small and/or highly symmetric molecules). If this is the case, one could add
 dummy atoms as extra point charges (and setting INCDUM in MDC-block to 1).

 Level:                                 MDC-d        MDC-q
 ---------------------------------------------------------
 Charge   (a.u.)                       0.0000       0.0000
 Dipole   (Debye)                      0.0000       0.0412
 Quad.    (a.u.)                       0.0674       0.0026

 --------------------------------------- 
 Represented molecular multipole moments
 --------------------------------------- 

 Given here are the Molecular multipole moments from the atomic charges, and from the Fit Density.
 Note that the atomic charges represent the latter, NOT the ones from the Exact density.

            Q (a.u.)             Dipole moment (Debye)                                          Quadrupole moment (a.u.)
                                 x         y         z              xx        xy        xz        yy        yz        zz
------------------------------------------------------------------------------------------------------------------------
MDC-m         0.0000        0.0002   -0.0000   -4.1749         -0.1291    0.0000    0.0004   -0.1295   -0.0000    0.2585
MDC-d         0.0000       -0.0015   -0.0000   -5.1701         -0.2018    0.0000   -0.0015   -0.2002   -0.0000    0.4021
MDC-q        -0.0000       -0.0527   -0.0000   -5.5060         -0.4920    0.0000   -0.1148   -0.3792   -0.0000    0.8712
 
Fit.Dens.     0.0000       -0.0015   -0.0000   -5.1701         -0.0271   -0.0000   -0.0009   -0.0241   -0.0000    0.0512



 =============
 Dipole Moment  ***  (Debye)  ***
 =============
  
 Vector   :        -0.00000010      0.00000000     -5.16857917
 Magnitude:         5.16857917

 This molecular dipole moment is calculated with analytic integration



 =========================================
 Quadrupole Moment (Buckingham convention)  ***  (a.u.)  ***
 =========================================
  
      quad-xx        quad-xy        quad-xz        quad-yy        quad-yz        quad-zz
     -0.02543848     0.00000000    -0.00000000    -0.02543854     0.00000000     0.05087702

 This molecular quadrupole moment is calculated with analytic integration
 Becke grid quality: Special        
  
 Lebedev angular grid order:             min:  35 max:  35
 Nr. of radial points:                   min:  92 max: 110



 ========================
 Density Fitting (zlmFit)
 ========================
  
 ZlmFit Fit Quality: VERYGOOD       
  
 Max L-expansion:                        min:  10 max:  11
 Nr. of radial interpolation points:     min: 130 max: 160



 ========================
 Density Fitting (zlmFit)
 ========================
  
 ZlmFit Fit Quality: VERYGOOD       
  
 Max L-expansion:                        min:  10 max:  11
 Nr. of radial interpolation points:     min: 130 max: 160
1



 ===========================
 B O N D I N G   E N E R G Y  ***  (decomposition)  ***
 ===========================
  
*** IMPORTANT NOTE ***

The bond energy is computed as an energy difference between molecule and
fragments. In particular when the fragments are single atoms, they are usually
computed as SPHERICALLY SYMMETRIC and SPIN-RESTRICTED. Obviously, this usually
does NOT represent the true atomic groundstate.

To obtain the 'real' bond energy, (atomic) correction terms must be applied
for the true (multiplet) fragment ground state. See ref: E.J.Baerends,
V.Branchadell, M.Sodupe, Chem.Phys.Lett.265 (1997) 481

General theoretical background on the bond energy decomposition scheme used
here (Morokuma-Ziegler) can be found in the review paper:
F.M. Bickelhaupt and E.J. Baerends,
"Kohn-Sham Density Functional Theory: Predicting and Understanding Chemistry"
In: Rev. Comput. Chem.; Lipkowitz, K. B. and Boyd, D. B., Eds.;
Wiley-VCH: New York, 2000, Vol. 15, 1-86.

Symbols used in the Bickelhaupt-Baerends (BB) paper are given below to make
the direct connection to that paper, where detailed explanations can be found
on the meaning of the various terms.


                                                   hartree              eV         kcal/mol           kJ/mol
                                      --------------------     -----------       ----------      -----------

Pauli Repulsion
  Kinetic (Delta T^0):                   0.632537309071818         17.2122           396.92          1660.73
  Delta V^Pauli Coulomb:                -0.318291642613689         -8.6612          -199.73          -835.67
  Delta V^Pauli LDA-XC:                 -0.140682605335130         -3.8282           -88.28          -369.36
  Delta V^Pauli GGA-Exchange:            0.030150112409640          0.8204            18.92            79.16
  Delta V^Pauli GGA-Correlation:        -0.017261537449909         -0.4697           -10.83           -45.32
                                      --------------------     -----------       ----------      -----------
  Total Pauli Repulsion:                 0.186451636082730          5.0736           117.00           489.53
 (Total Pauli Repulsion =
  Delta E^Pauli in BB paper)

Steric Interaction
  Pauli Repulsion (Delta E^Pauli):       0.186451636082730          5.0736           117.00           489.53
  Electrostatic Interaction:            -0.124069200036589         -3.3761           -77.85          -325.74
 (Electrostatic Interaction =
  Delta V_elstat in the BB paper)
                                      --------------------     -----------       ----------      -----------
  Total Steric Interaction:              0.062382436046141          1.6975            39.15           163.79
 (Total Steric Interaction =
  Delta E^0 in the BB paper)

Orbital Interactions
  A1:                                   -0.111263184349150         -3.0276           -69.82          -292.12
  A2:                                    0.000000000000000          0.0000             0.00             0.00
  E1:                                   -0.012116140425950         -0.3297            -7.60           -31.81
                                      --------------------     -----------       ----------      -----------
  Total Orbital Interactions:           -0.123379324775100         -3.3573           -77.42          -323.93

Alternative Decomposition Orb.Int.
  Kinetic:                              -0.490342766877821        -13.3429          -307.69         -1287.39
  Coulomb:                               0.315360075491707          8.5814           197.89           827.98
  XC:                                    0.051603366611014          1.4042            32.38           135.48
                                      --------------------     -----------       ----------      -----------
  Total Orbital Interactions:           -0.123379324775100         -3.3573           -77.42          -323.93

  Residu (E=Steric+OrbInt+Res):         -0.000001964486805         -0.0001            -0.00            -0.01

Total Bonding Energy:                   -0.060998853215763         -1.6599           -38.28          -160.15


Summary of Bonding Energy (energy terms are taken from the energy decomposition above)
======================================================================================

  Electrostatic Energy:                 -0.124069200036589         -3.3761           -77.85          -325.74
  Kinetic Energy:                        0.142194542193997          3.8693            89.23           373.33
  Coulomb (Steric+OrbInt) Energy:       -0.002933531608787         -0.0798            -1.84            -7.70
  XC Energy:                            -0.076190663764384         -2.0733           -47.81          -200.04
                                      --------------------     -----------       ----------      -----------
  Total Bonding Energy:                 -0.060998853215763         -1.6599           -38.28          -160.15


Correction terms (incorporated in energies above; only for test purposes):

1. Indication of fit-quality: 1st-order fit-correction used in the energy (hartree):   0.0000189635
2. Electrostatic (Fit correction):   0.0000000000

Scaled ZORA energy correction, not included in bonding energy (hartree):            0.0000014990
 NOTE: This scaled ZORA energy correction should only be used to compare two calculations
 in which the only difference in the calculation is the electron configuration.
 Then the difference in energy of this term should be added to the difference in energy of
 the two electron configurations.
 This term should not be used otherwise.
 In practice it is useful only for core excitation energy calculations.



 =========================================
 F R A G M E N T   E N E R G Y   T E R M S  ***  (summed over all fragments)  ***
 =========================================
  

The energy terms below are (parts of) the Total Energy of the fragments from which the molecule
 is built.

Exchange and Correlation
  Exchange LDA:                        -11.254263809982248       -306.2441         -7062.16        -29548.07
  Exchange GGA:                         -1.339677057562764        -36.4545          -840.66         -3517.32
  Correlation LDA:                       0.000000000000000          0.0000             0.00             0.00
  Correlation GGA:                      -0.532295373554584        -14.4845          -334.02         -1397.54
                                      --------------------     -----------       ----------      -----------
  Total XC:                            -13.126236241099596       -357.1831         -8236.84        -34462.93
1



 =======================================================
 S F O   P O P U L A T I O N S ,   M O   A N A L Y S I S
 =======================================================
  
 A Mulliken population analysis is performed on (input-)selected MOs. All populations refer to SFOs.
 BAS populations may have been printed directly after the SCF part.


                                       === A1 ===


 SFO contributions (%) per orbital
 (multiplication by the orbital occupation yields the SFO Gross Populations)

 Orb.:        1      2      3      4      5      6      7      8      9
 occup:     2.00   2.00   2.00   2.00   2.00   0.00   0.00   0.00   0.00
 CF+SFO     ----   ----   ----   ----   ----   ----   ----   ----   ----
 ------
      1:  100.00   0.00  -0.00   0.00   0.00  -0.00  -0.00  -0.00  -0.00
      2:   -0.00   0.00 100.22   2.13   0.01   0.10   0.07  -0.34   0.55
      3:    0.00  -0.00   0.62  46.65  30.44  -0.60   3.69   2.39   6.76
      4:   -0.00   0.00   0.01   0.08   0.53 115.78  -2.42   6.43   0.06
      5:    0.00   0.00   0.01   0.01   0.18   0.22  -0.71   1.39  71.38
      6:    0.00  -0.00   0.02  -2.18   3.03  -2.16   2.91 -15.77  -1.80
      8:    0.00  -0.00   0.00   0.08  -0.08   0.08  -0.01  -2.32  -0.00
      9:    0.00  -0.00   0.00  -0.02   0.02   0.16  -0.03  -1.81   0.19
     20:   -0.00 100.01   0.00   0.00  -0.00  -0.00   0.00   0.00   0.00
     21:    0.00   0.00   0.23  48.46  48.33   0.11   0.57   4.57   0.63
     22:    0.00  -0.00   0.55   2.38  13.52  -3.43   6.08  81.78   9.89
     23:    0.00   0.00  -0.34   0.30   1.19  -8.62  85.60   6.59   1.05
     24:    0.00  -0.00  -0.68   1.76   2.73  -2.70   5.32  24.15   5.68
     25:    0.00   0.00  -0.29   0.03   0.07  -1.03   0.01  -9.11   2.88
     26:    0.00   0.00  -0.57   0.03  -0.11   1.79  -0.36  -2.90   2.10
     27:   -0.00  -0.00   0.22   0.03   0.16   0.12  -0.02   2.93   0.16


 Summation over all MOs, multiplied by occupation: Total SFO Gross Populations in this Irrep
 ===========================================================================================

     2.00    2.05    1.55    0.01    0.00    0.02    0.00    0.00    0.00   -0.00   -0.00    0.00
     0.00   -0.00    0.00    0.00   -0.00   -0.00    0.00    2.00    1.94    0.33    0.02    0.08
    -0.00   -0.01    0.01    0.00    0.00   -0.00    0.00   -0.00    0.00   -0.00    0.00    0.00
     0.00   -0.00


                                       === A2 ===


 SFO contributions (%) per orbital
 (multiplication by the orbital occupation yields the SFO Gross Populations)

 Orb.:        1      2      3      4
 occup:     0.00   0.00   0.00   0.00
 CF+SFO     ----   ----   ----   ----
 ------
      1:   29.26  70.63   0.07   0.02
      2:    0.04   0.02  20.05  79.78
      5:   70.65  29.26   0.01   0.05
      6:    0.02   0.07  79.82  20.04


 Summation over all MOs, multiplied by occupation: Total SFO Gross Populations in this Irrep
 ===========================================================================================

     0.00    0.00    0.00    0.00    0.00    0.00    0.00    0.00


                                       === E1:1 ===


 SFO contributions (%) per orbital
 (multiplication by the orbital occupation yields the SFO Gross Populations)

 Orb.:        1      2      3      4      5      6
 occup:     2.00   2.00   0.00   0.00   0.00   0.00
 CF+SFO     ----   ----   ----   ----   ----   ----
 ------
      1:   97.95   1.59   0.13   0.08   0.06  -0.04
      2:    0.06  -0.23  94.87   0.45   0.07   3.06
      3:    0.03   1.24   1.63   6.94  -2.38  84.67
      4:    0.01  -0.20   0.13   0.11   6.92   0.17
      5:   -0.01   0.50   0.08   0.95  -2.39   0.43
     19:    1.68  97.21  -0.15   0.26  -0.55   1.03
     20:   -0.20  -0.03   3.86  46.28  51.21  -1.29
     21:    0.26   0.11  -0.62  44.11  46.49   6.43
     23:    0.24  -0.00   0.04   0.40   0.71   4.83


 Summation over all MOs, multiplied by occupation: Total SFO Gross Populations in this Irrep
 ===========================================================================================

     1.99   -0.00    0.03   -0.00    0.01   -0.00    0.00   -0.00    0.00   -0.00   -0.00    0.00
     0.00   -0.00   -0.00    0.00   -0.00   -0.00    1.98   -0.00    0.01   -0.00    0.00    0.00
     0.00    0.00   -0.00    0.00   -0.00    0.00    0.00   -0.00   -0.00   -0.00   -0.00   -0.00


                                       === E1:2 ===


 SFO contributions (%) per orbital
 (multiplication by the orbital occupation yields the SFO Gross Populations)

 Orb.:        1      2      3      4      5      6
 occup:     2.00   2.00   0.00   0.00   0.00   0.00
 CF+SFO     ----   ----   ----   ----   ----   ----
 ------
      1:   97.95   1.59   0.13   0.08   0.06  -0.04
      2:    0.06  -0.23  94.87   0.45   0.07   3.06
      3:    0.03   1.24   1.63   6.94  -2.38  84.67
      4:    0.01  -0.20   0.13   0.11   6.92   0.17
      5:   -0.01   0.50   0.08   0.95  -2.39   0.43
     19:    1.68  97.21  -0.15   0.26  -0.55   1.03
     20:   -0.20  -0.03   3.86  46.28  51.21  -1.29
     21:    0.26   0.11  -0.62  44.11  46.49   6.43
     23:    0.24  -0.00   0.04   0.40   0.71   4.83


 Summation over all MOs, multiplied by occupation: Total SFO Gross Populations in this Irrep
 ===========================================================================================

     1.99   -0.00    0.03   -0.00    0.01   -0.00    0.00   -0.00    0.00   -0.00   -0.00    0.00
     0.00   -0.00   -0.00    0.00   -0.00   -0.00    1.98   -0.00    0.01   -0.00    0.00    0.00
     0.00    0.00   -0.00    0.00   -0.00    0.00    0.00   -0.00   -0.00   -0.00   -0.00   -0.00



 List of all MOs, ordered by energy, with the most significant SFO gross populations
 ===================================================================================

 Each percentage contribution in the table below corres ponds to the indicated SFO.
 In general, a SFO may be a linear combination of several Fragment Orbitals on the same,
 or on symmetry-related Fragments. Only the first 'member' of such a combination is
 specified here. A full definition of all SFOs is given in an earlier part of the output.
 The numbering of the SFOs in this table does NOT include the Core Orbitals, and starts
 from one for each symmetry representation, as in the SFO definition list earlier.

       E(eV)  Occ       MO           %     SFO (first member)   E(eV)  Occ   Fragment
 -------------------------------------------------------------------------------------

     -23.958  2.00     3 A1       100.22%     2 A1            -21.188  2.00     1 Donor
                                   -0.68%     5 A1              3.233  0.00     2 Acceptor
     -13.793  2.00     1 E1:1      97.95%     1 E1:1          -11.380  2.00     1 Donor
                                    1.68%     1 E1:1           -8.212  2.00     2 Acceptor
     -13.793  2.00     1 E1:2      97.95%     1 E1:1          -11.380  2.00     1 Donor
                                    1.68%     1 E1:1           -8.212  2.00     2 Acceptor
     -12.460  2.00     4 A1        48.46%     2 A1            -12.625  2.00     2 Acceptor
                                   46.65%     3 A1             -5.854  2.00     1 Donor
                                    2.38%     3 A1             -3.357  0.00     2 Acceptor
                                   -2.18%     6 A1              7.917  0.00     1 Donor
                                    2.13%     2 A1            -21.188  2.00     1 Donor
                                    1.76%     5 A1              3.233  0.00     2 Acceptor
      -8.439  2.00     5 A1        48.33%     2 A1            -12.625  2.00     2 Acceptor
                                   30.44%     3 A1             -5.854  2.00     1 Donor
                                   13.52%     3 A1             -3.357  0.00     2 Acceptor
                                    3.03%     6 A1              7.917  0.00     1 Donor
                                    2.73%     5 A1              3.233  0.00     2 Acceptor
                                    1.19%     4 A1              0.177  0.00     2 Acceptor
      -6.422  2.00     2 E1:1      97.21%     1 E1:1           -8.212  2.00     2 Acceptor
                                    1.59%     1 E1:1          -11.380  2.00     1 Donor
                                    1.24%     3 E1:1            5.933  0.00     1 Donor
      -6.422  2.00     2 E1:2      97.21%     1 E1:1           -8.212  2.00     2 Acceptor
                                    1.59%     1 E1:1          -11.380  2.00     1 Donor
                                    1.24%     3 E1:1            5.933  0.00     1 Donor
      -1.481  0.00     6 A1       115.78%     4 A1             -0.636  0.00     1 Donor
                                   -8.62%     4 A1              0.177  0.00     2 Acceptor
                                   -3.43%     3 A1             -3.357  0.00     2 Acceptor
                                   -2.70%     5 A1              3.233  0.00     2 Acceptor
                                   -2.16%     6 A1              7.917  0.00     1 Donor
                                    1.79%     7 A1             11.304  0.00     2 Acceptor
                                   -1.03%     6 A1              6.534  0.00     2 Acceptor
       0.210  0.00     3 E1:1      94.87%     2 E1:1            1.104  0.00     1 Donor
                                    3.86%     2 E1:1            1.881  0.00     2 Acceptor
                                    1.63%     3 E1:1            5.933  0.00     1 Donor
       0.210  0.00     3 E1:2      94.87%     2 E1:1            1.104  0.00     1 Donor
                                    3.86%     2 E1:1            1.881  0.00     2 Acceptor
                                    1.63%     3 E1:1            5.933  0.00     1 Donor
       1.163  0.00     7 A1        85.60%     4 A1              0.177  0.00     2 Acceptor
                                    6.08%     3 A1             -3.357  0.00     2 Acceptor
                                    5.32%     5 A1              3.233  0.00     2 Acceptor
                                    3.69%     3 A1             -5.854  2.00     1 Donor
                                    2.91%     6 A1              7.917  0.00     1 Donor
                                   -2.42%     4 A1             -0.636  0.00     1 Donor
       2.569  0.00     8 A1        81.78%     3 A1             -3.357  0.00     2 Acceptor
                                   24.15%     5 A1              3.233  0.00     2 Acceptor
                                  -15.77%     6 A1              7.917  0.00     1 Donor
                                   -9.11%     6 A1              6.534  0.00     2 Acceptor
                                    6.59%     4 A1              0.177  0.00     2 Acceptor
                                    6.43%     4 A1             -0.636  0.00     1 Donor
                                    4.57%     2 A1            -12.625  2.00     2 Acceptor
                                    2.93%     8 A1             20.849  0.00     2 Acceptor
                                   -2.90%     7 A1             11.304  0.00     2 Acceptor
                                    2.39%     3 A1             -5.854  2.00     1 Donor
                                   -2.32%     8 A1             30.466  0.00     1 Donor
                                   -1.81%     9 A1             37.304  0.00     1 Donor
                                    1.39%     5 A1              6.882  0.00     1 Donor
       2.803  0.00     4 E1:1      46.28%     2 E1:1            1.881  0.00     2 Acceptor
                                   44.11%     3 E1:1            2.293  0.00     2 Acceptor
                                    6.94%     3 E1:1            5.933  0.00     1 Donor
       2.803  0.00     4 E1:2      46.28%     2 E1:1            1.881  0.00     2 Acceptor
                                   44.11%     3 E1:1            2.293  0.00     2 Acceptor
                                    6.94%     3 E1:1            5.933  0.00     1 Donor
       3.589  0.00     5 E1:1      51.21%     2 E1:1            1.881  0.00     2 Acceptor
                                   46.49%     3 E1:1            2.293  0.00     2 Acceptor
                                    6.92%     4 E1:1           12.214  0.00     1 Donor
                                   -2.39%     5 E1:1           12.666  0.00     1 Donor
                                   -2.38%     3 E1:1            5.933  0.00     1 Donor
       3.589  0.00     5 E1:2      51.21%     2 E1:1            1.881  0.00     2 Acceptor
                                   46.49%     3 E1:1            2.293  0.00     2 Acceptor
                                    6.92%     4 E1:1           12.214  0.00     1 Donor
                                   -2.39%     5 E1:1           12.666  0.00     1 Donor
                                   -2.38%     3 E1:1            5.933  0.00     1 Donor



 =======================================================================
 Electrostatic potential at the Nuclei due to electrons and other nuclei
 =======================================================================
  
         Atom                  Potential
         ----                  ---------
     1)   N                  18.33732786
     2)   B                  11.54712473
     3)   H                   0.98992567
     4)   H                   0.98992567
     5)   H                   0.98992307
     6)   H                   1.22169437
     7)   H                   1.22169437
     8)   H                   1.22168536
 Mulliken charges used for AMS results%charges...


    =====================
     CALCULATION RESULTS
    =====================

Energy (hartree)            -0.06099885


--------------
Atomic charges
--------------
  Index   Atom    Charge
      1      N    0.3752
      2      B    0.6237
      3      H   -0.0140
      4      H   -0.0140
      5      H   -0.0140
      6      H   -0.3190
      7      H   -0.3190
      8      H   -0.3190


Dipole moment vector    (Debye):    -0.00000010    0.00000000   -5.16857917
              magnitude (Debye):     5.16857917


AMS application finished. Exiting.
NORMAL TERMINATION
     Total cpu time:      10.16
  Total system time:       2.05
 Total elapsed time:      13.63
