
                                 *****************
                                 * O   R   C   A *
                                 *****************

                                            #,                                       
                                            ###                                      
                                            ####                                     
                                            #####                                    
                                            ######                                   
                                           ########,                                 
                                     ,,################,,,,,                         
                               ,,#################################,,                 
                          ,,##########################################,,             
                       ,#########################################, ''#####,          
                    ,#############################################,,   '####,        
                  ,##################################################,,,,####,       
                ,###########''''           ''''###############################       
              ,#####''   ,,,,##########,,,,          '''####'''          '####       
            ,##' ,,,,###########################,,,                        '##       
           ' ,,###''''                  '''############,,,                           
         ,,##''                                '''############,,,,        ,,,,,,###''
      ,#''                                            '''#######################'''  
     '                                                          ''''####''''         
             ,#######,   #######,   ,#######,      ##                                
            ,#'     '#,  ##    ##  ,#'     '#,    #''#        ######   ,####,        
            ##       ##  ##   ,#'  ##            #'  '#       #        #'  '#        
            ##       ##  #######   ##           ,######,      #####,   #    #        
            '#,     ,#'  ##    ##  '#,     ,#' ,#      #,         ##   #,  ,#        
             '#######'   ##     ##  '#######'  #'      '#     #####' # '####'        



                  #######################################################
                  #                        -***-                        #
                  #          Department of theory and spectroscopy      #
                  #    Directorship and core code : Frank Neese         #
                  #        Max Planck Institute fuer Kohlenforschung    #
                  #                Kaiser Wilhelm Platz 1               #
                  #                 D-45470 Muelheim/Ruhr               #
                  #                      Germany                        #
                  #                                                     #
                  #                  All rights reserved                #
                  #                        -***-                        #
                  #######################################################


                         Program Version 5.0.1 -  RELEASE  -


 With contributions from (in alphabetic order):
   Daniel Aravena         : Magnetic Suceptibility
   Michael Atanasov       : Ab Initio Ligand Field Theory (pilot matlab implementation)
   Alexander A. Auer      : GIAO ZORA, VPT2 properties, NMR spectrum
   Ute Becker             : Parallelization
   Giovanni Bistoni       : ED, misc. LED, open-shell LED, HFLD
   Martin Brehm           : Molecular dynamics
   Dmytro Bykov           : SCF Hessian
   Vijay G. Chilkuri      : MRCI spin determinant printing, contributions to CSF-ICE
   Dipayan Datta          : RHF DLPNO-CCSD density
   Achintya Kumar Dutta   : EOM-CC, STEOM-CC
   Dmitry Ganyushin       : Spin-Orbit,Spin-Spin,Magnetic field MRCI
   Miquel Garcia          : C-PCM and meta-GGA Hessian, CC/C-PCM, Gaussian charge scheme
   Yang Guo               : DLPNO-NEVPT2, F12-NEVPT2, CIM, IAO-localization
   Andreas Hansen         : Spin unrestricted coupled pair/coupled cluster methods
   Benjamin Helmich-Paris : MC-RPA, TRAH-SCF, COSX integrals
   Lee Huntington         : MR-EOM, pCC
   Robert Izsak           : Overlap fitted RIJCOSX, COSX-SCS-MP3, EOM
   Marcus Kettner         : VPT2
   Christian Kollmar      : KDIIS, OOCD, Brueckner-CCSD(T), CCSD density, CASPT2, CASPT2-K
   Simone Kossmann        : Meta GGA functionals, TD-DFT gradient, OOMP2, MP2 Hessian
   Martin Krupicka        : Initial AUTO-CI
   Lucas Lang             : DCDCAS
   Marvin Lechner         : AUTO-CI (C++ implementation), FIC-MRCC
   Dagmar Lenk            : GEPOL surface, SMD
   Dimitrios Liakos       : Extrapolation schemes; Compound Job, initial MDCI parallelization
   Dimitrios Manganas     : Further ROCIS development; embedding schemes
   Dimitrios Pantazis     : SARC Basis sets
   Anastasios Papadopoulos: AUTO-CI, single reference methods and gradients
   Taras Petrenko         : DFT Hessian,TD-DFT gradient, ASA, ECA, R-Raman, ABS, FL, XAS/XES, NRVS
   Peter Pinski           : DLPNO-MP2, DLPNO-MP2 Gradient
   Christoph Reimann      : Effective Core Potentials
   Marius Retegan         : Local ZFS, SOC
   Christoph Riplinger    : Optimizer, TS searches, QM/MM, DLPNO-CCSD(T), (RO)-DLPNO pert. Triples
   Tobias Risthaus        : Range-separated hybrids, TD-DFT gradient, RPA, STAB
   Michael Roemelt        : Original ROCIS implementation
   Masaaki Saitow         : Open-shell DLPNO-CCSD energy and density
   Barbara Sandhoefer     : DKH picture change effects
   Avijit Sen             : IP-ROCIS
   Kantharuban Sivalingam : CASSCF convergence, NEVPT2, FIC-MRCI
   Bernardo de Souza      : ESD, SOC TD-DFT
   Georgi Stoychev        : AutoAux, RI-MP2 NMR, DLPNO-MP2 response
   Willem Van den Heuvel  : Paramagnetic NMR
   Boris Wezisla          : Elementary symmetry handling
   Frank Wennmohs         : Technical directorship


 We gratefully acknowledge several colleagues who have allowed us to
 interface, adapt or use parts of their codes:
   Stefan Grimme, W. Hujo, H. Kruse, P. Pracht,  : VdW corrections, initial TS optimization,
                  C. Bannwarth, S. Ehlert          DFT functionals, gCP, sTDA/sTD-DF
   Ed Valeev, F. Pavosevic, A. Kumar             : LibInt (2-el integral package), F12 methods
   Garnet Chan, S. Sharma, J. Yang, R. Olivares  : DMRG
   Ulf Ekstrom                                   : XCFun DFT Library
   Mihaly Kallay                                 : mrcc  (arbitrary order and MRCC methods)
   Jiri Pittner, Ondrej Demel                    : Mk-CCSD
   Frank Weinhold                                : gennbo (NPA and NBO analysis)
   Christopher J. Cramer and Donald G. Truhlar   : smd solvation model
   Lars Goerigk                                  : TD-DFT with DH, B97 family of functionals
   V. Asgeirsson, H. Jonsson                     : NEB implementation
   FAccTs GmbH                                   : IRC, NEB, NEB-TS, DLPNO-Multilevel, CI-OPT
                                                   MM, QMMM, 2- and 3-layer-ONIOM, Crystal-QMMM,
                                                   LR-CPCM, SF, NACMEs, symmetry and pop. for TD-DFT,
                                                   nearIR, NL-DFT gradient (VV10), updates on ESD,
                                                   ML-optimized integration grids
   S Lehtola, MJT Oliveira, MAL Marques          : LibXC Library
   Liviu Ungur et al                             : ANISO software


 Your calculation uses the libint2 library for the computation of 2-el integrals
 For citations please refer to: http://libint.valeyev.net

 Your ORCA version has been built with support for libXC version: 5.1.0
 For citations please refer to: https://tddft.org/programs/libxc/

 This ORCA versions uses:
   CBLAS   interface :  Fast vector & matrix operations
   LAPACKE interface :  Fast linear algebra routines
   SCALAPACK package :  Parallel linear algebra routines
   Shared memory     :  Shared parallel matrices
   BLAS/LAPACK       :  OpenBLAS 0.3.15  USE64BITINT DYNAMIC_ARCH NO_AFFINITY Zen SINGLE_THREADED
        Core in use  :  Zen
   Copyright (c) 2011-2014, The OpenBLAS Project


================================================================================

----- Orbital basis set information -----
Your calculation utilizes the basis: cc-pVTZ 
       H, B-Ne : Obtained from the ccRepo (grant-hill.group.shef.ac.uk/ccrepo) Feb. 2017
                 T. H. Dunning, Jr., J. Chem. Phys. 90, 1007 (1989)
            He : Obtained from the ccRepo (grant-hill.group.shef.ac.uk/ccrepo) Feb. 2017
                 D. E. Woon, T. H. Dunning, Jr., J. Chem. Phys. 100, 2975 (1994)
  Li-Be, Na-Mg : Obtained from the ccRepo (grant-hill.group.shef.ac.uk/ccrepo) Feb. 2017
                 B. P. Prascher, D. E. Woon, K. A. Peterson, T. H. Dunning, Jr., A. K. Wilson, Theor. Chem. Acc. 128, 69 (2011)
         Al-Ar : Obtained from the ccRepo (grant-hill.group.shef.ac.uk/ccrepo) Feb. 2017
                 D. E. Woon, T. H. Dunning, Jr., J. Chem. Phys. 98, 1358 (1993)
            Ca : Obtained from the Peterson Research Group Website (tyr0.chem.wsu.edu/~kipeters) Feb. 2017
                 J. Koput, K. A. Peterson, J. Phys. Chem. 106, 9595 (2002)
         Sc-Zn : Obtained from the ccRepo (grant-hill.group.shef.ac.uk/ccrepo) Feb. 2017
                 N. B. Balabanov, K. A. Peterson, J. Chem. Phys. 123, 064107 (2005)
                 N. B. Balabanov, K. A. Peterson, J. Chem. Phys. 125, 074110 (2006)
         Ga-Kr : Obtained from the ccRepo (grant-hill.group.shef.ac.uk/ccrepo) Feb. 2017
                 A. K. Wilson, D. E. Woon, K. A. Peterson, T. H. Dunning, Jr., J. Chem. Phys. 110, 7667 (1999)
             Y : Obtained from the ccRepo (grant-hill.group.shef.ac.uk/ccrepo) Feb. 2017
                 K. A. Peterson, D. Figgen, M. Dolg, H. Stoll, J. Chem. Phys. 126, 124101 (2007)
        Ag, Au : Obtained from the Peterson Research Group Website (tyr0.chem.wsu.edu/~kipeters) Feb. 2017
                 K. A. Peterson, C. Puzzarini, Theor. Chem. Acc. 114, 283 (2005)

================================================================================
                                        WARNINGS
                       Please study these warnings very carefully!
================================================================================


WARNING: your system is open-shell and RHF/RKS was chosen
  ===> : WILL SWITCH to UHF/UKS


WARNING: The environment variable RSH_COMMAND is not set!
  ===> : All Displacements for the Numerical Hessian calculation
         will be started on localhost

WARNING: Geometry Optimization
  ===> : Switching off AutoStart
         For restart on a previous wavefunction, please use MOREAD

WARNING: Post HF methods need fully converged wavefunctions
  ===> : Setting SCFConvForced true
         You can overwrite this default with %scf ConvForced false 


WARNING: MDCI localization with Augmented Hessian Foster-Boys
  ===> : Switching off randomization!

INFO   : the flag for use of the SHARK integral package has been found!

================================================================================
                                       INPUT FILE
================================================================================
NAME = ./4601902.inp
|  1> 
|  2> !Opt CCSD(T) CC-pVTZ TightSCF UNO NUMGRAD
|  3> 
|  4> 	%BASE "OPT"
|  5> 
|  6> 	%mdci
|  7> 		UseQROs True
|  8> 	END
|  9> 
| 10> 	%PAL
| 11> 	  nprocs 18
| 12> 	END
| 13> 
| 14> 	%maxcore 9333
| 15> 
| 16> 	* xyz 0 2
| 17> 		C   -1.17087056451492     -0.21283010070605      0.00264806381362
| 18> 		C   -1.18625142492470      0.86403832242059     -0.54282039154477
| 19> 		H   -1.21353612687308      1.81062315931653     -1.02665493378260
| 20> 		N   1.15591063363264     -1.63787346388216      1.45050545176725
| 21> 		H   1.76975741340234     -1.49525467406345      0.64239431448136
| 22> 		H   1.34029153667540     -0.80904565356851      2.02445305524926
| 23> 		H   -1.12950300739769     -1.15890273951694      0.49057405001590
| 24> 	*
| 25> 
| 26> 
| 27>                          ****END OF INPUT****
================================================================================

                       *****************************
                       * Geometry Optimization Run *
                       *****************************

Geometry optimization settings:
Update method            Update   .... BFGS
Choice of coordinates    CoordSys .... Z-matrix Internals
Initial Hessian          InHess   .... Almoef's Model

Convergence Tolerances:
Energy Change            TolE     ....  5.0000e-06 Eh
Max. Gradient            TolMAXG  ....  3.0000e-04 Eh/bohr
RMS Gradient             TolRMSG  ....  1.0000e-04 Eh/bohr
Max. Displacement        TolMAXD  ....  4.0000e-03 bohr
RMS Displacement         TolRMSD  ....  2.0000e-03 bohr
Strict Convergence                ....  False
------------------------------------------------------------------------------
                        ORCA OPTIMIZATION COORDINATE SETUP
------------------------------------------------------------------------------

The optimization will be done in new redundant internal coordinates
Making redundant internal coordinates   ...  (new redundants) done
Evaluating the initial hessian          ...  (Almloef) done
Evaluating the coordinates              ...  done
Calculating the B-matrix                .... done
Calculating the G-matrix                .... done
Diagonalizing the G-matrix              .... done
The first mode is                       ....    7
The number of degrees of freedom        ....   15

    -----------------------------------------------------------------
                    Redundant Internal Coordinates


    -----------------------------------------------------------------
         Definition                    Initial Value    Approx d2E/dq
    -----------------------------------------------------------------
      1. B(C   1,C   0)                  1.2072         1.222721   
      2. B(H   2,C   1)                  1.0634         0.397035   
      3. B(N   3,C   0)                  3.0888         0.001090   
      4. B(H   4,N   3)                  1.0248         0.409827   
      5. B(H   4,C   0)                  3.2713         0.000119   
      6. B(H   5,C   0)                  3.2786         0.000116   
      7. B(H   5,N   3)                  1.0249         0.409698   
      8. B(H   6,H   4)                  2.9227         0.000082   
      9. B(H   6,C   0)                  1.0653         0.394322   
     10. B(H   6,H   5)                  2.9283         0.000080   
     11. B(H   6,N   3)                  2.5247         0.001658   
     12. A(C   1,C   0,N   3)          129.2659         0.183957   
     13. A(N   3,C   0,H   6)           49.1813         0.152570   
     14. L(C   0,C   1,H   2,N   3, 1) 180.7693         0.403635   
     15. L(C   0,C   1,H   2,N   3, 2) 179.9980         0.403635   
     16. A(C   0,N   3,H   5)           91.4280         0.152375   
     17. A(H   4,N   3,H   5)          102.7853         0.298037   
     18. A(C   0,N   3,H   4)           90.9959         0.152380   
     19. D(H   4,N   3,C   0,H   6)    128.6782         0.001500   
     20. D(H   5,N   3,C   0,C   1)     51.4986         0.001500   
     21. D(H   5,N   3,C   0,H   6)   -128.5050         0.001500   
     22. D(H   4,N   3,C   0,C   1)    -51.3182         0.001500   
    -----------------------------------------------------------------

Number of atoms                         .... 7
Number of degrees of freedom            .... 22

         *************************************************************
         *                GEOMETRY OPTIMIZATION CYCLE   1            *
         *************************************************************
---------------------------------
CARTESIAN COORDINATES (ANGSTROEM)
---------------------------------
  C     -1.170871   -0.212830    0.002648
  C     -1.186251    0.864038   -0.542820
  H     -1.213536    1.810623   -1.026655
  N      1.155911   -1.637873    1.450505
  H      1.769757   -1.495255    0.642394
  H      1.340292   -0.809046    2.024453
  H     -1.129503   -1.158903    0.490574

----------------------------
CARTESIAN COORDINATES (A.U.)
----------------------------
  NO LB      ZA    FRAG     MASS         X           Y           Z
   0 C     6.0000    0    12.011   -2.212625   -0.402191    0.005004
   1 C     6.0000    0    12.011   -2.241690    1.632796   -1.025782
   2 H     1.0000    0     1.008   -2.293251    3.421582   -1.940097
   3 N     7.0000    0    14.007    2.184355   -3.095132    2.741058
   4 H     1.0000    0     1.008    3.344357   -2.825622    1.213949
   5 H     1.0000    0     1.008    2.532784   -1.528875    3.825662
   6 H     1.0000    0     1.008   -2.134451   -2.190009    0.927051

--------------------------------
INTERNAL COORDINATES (ANGSTROEM)
--------------------------------
 C      0   0   0     0.000000000000     0.00000000     0.00000000
 C      1   0   0     1.207235688416     0.00000000     0.00000000
 H      2   1   0     1.063420506039   179.23068716     0.00000000
 N      1   2   3     3.088842881539   129.26585323   179.91022320
 H      4   1   2     1.024788562801    90.99593523   308.68179257
 H      4   1   2     1.024874484071    91.42803240    51.49857752
 H      1   2   3     1.065287041459   178.44717673   179.81038449

---------------------------
INTERNAL COORDINATES (A.U.)
---------------------------
 C      0   0   0     0.000000000000     0.00000000     0.00000000
 C      1   0   0     2.281344830202     0.00000000     0.00000000
 H      2   1   0     2.009573521610   179.23068716     0.00000000
 N      1   2   3     5.837067116822   129.26585323   179.91022320
 H      4   1   2     1.936569728869    90.99593523   308.68179257
 H      4   1   2     1.936732096537    91.42803240    51.49857752
 H      1   2   3     2.013100762372   178.44717673   179.81038449

---------------------
BASIS SET INFORMATION
---------------------
There are 3 groups of distinct atoms

 Group   1 Type C   : 18s5p2d1f contracted to 4s3p2d1f pattern {8811/311/11/1}
 Group   2 Type H   : 5s2p1d contracted to 3s2p1d pattern {311/11/1}
 Group   3 Type N   : 18s5p2d1f contracted to 4s3p2d1f pattern {8811/311/11/1}

Atom   0C    basis set group =>   1
Atom   1C    basis set group =>   1
Atom   2H    basis set group =>   2
Atom   3N    basis set group =>   3
Atom   4H    basis set group =>   2
Atom   5H    basis set group =>   2
Atom   6H    basis set group =>   2


           ************************************************************
           *        Program running with 18 parallel MPI-processes    *
           *              working on a common directory               *
           ************************************************************
------------------------------------------------------------------------------
                           ORCA GTO INTEGRAL CALCULATION
------------------------------------------------------------------------------
------------------------------------------------------------------------------
                   ___                                                        
                  /   \      - P O W E R E D   B Y -                         
                 /     \                                                     
                 |  |  |   _    _      __       _____    __    __             
                 |  |  |  | |  | |    /  \     |  _  \  |  |  /  |          
                  \  \/   | |  | |   /    \    | | | |  |  | /  /          
                 / \  \   | |__| |  /  /\  \   | |_| |  |  |/  /          
                |  |  |   |  __  | /  /__\  \  |    /   |      \           
                |  |  |   | |  | | |   __   |  |    \   |  |\   \          
                \     /   | |  | | |  |  |  |  | |\  \  |  | \   \       
                 \___/    |_|  |_| |__|  |__|  |_| \__\ |__|  \__/        
                                                                              
                      - O R C A' S   B I G   F R I E N D -                    
                                      &                                       
                       - I N T E G R A L  F E E D E R -                       
                                                                              
 v1 FN, 2020, v2 2021                                                         
------------------------------------------------------------------------------


Reading SHARK input file OPT.SHARKINP.tmp ... ok
----------------------
SHARK INTEGRAL PACKAGE
----------------------

Number of atoms                             ...      7
Number of basis functions                   ...    146
Number of shells                            ...     54
Maximum angular momentum                    ...      3
Integral batch strategy                     ... SHARK/LIBINT Hybrid
RI-J (if used) integral strategy            ... SPLIT-RIJ (Revised 2003 algorithm where possible)
Printlevel                                  ...      1
Contraction scheme used                     ... SEGMENTED contraction
Coulomb Range Separation                    ... NOT USED
Exchange Range Separation                   ... NOT USED
Finite Nucleus Model                        ... NOT USED
Auxiliary Coulomb fitting basis             ... NOT available
Auxiliary J/K fitting basis                 ... NOT available
Auxiliary Correlation fitting basis         ... NOT available
Auxiliary 'external' fitting basis          ... NOT available
Integral threshold                          ...     2.500000e-11
Primitive cut-off                           ...     2.500000e-12
Primitive pair pre-selection threshold      ...     2.500000e-12

Calculating pre-screening integrals         ... done (  0.1 sec) Dimension = 54
Organizing shell pair data                  ... done (  0.0 sec)
Shell pair information
Total number of shell pairs                 ...      1485
Shell pairs after pre-screening             ...      1426
Total number of primitive shell pairs       ...      6294
Primitive shell pairs kept                  ...      4575
          la=0 lb=0:    292 shell pairs
          la=1 lb=0:    393 shell pairs
          la=1 lb=1:    146 shell pairs
          la=2 lb=0:    229 shell pairs
          la=2 lb=1:    159 shell pairs
          la=2 lb=2:     51 shell pairs
          la=3 lb=0:     71 shell pairs
          la=3 lb=1:     50 shell pairs
          la=3 lb=2:     29 shell pairs
          la=3 lb=3:      6 shell pairs

Calculating one electron integrals          ... done (  0.0 sec)
Calculating Nuclear repulsion               ... done (  0.0 sec) ENN=     51.413936245691 Eh

SHARK setup successfully completed in   0.2 seconds

Maximum memory used throughout the entire GTOINT-calculation: 15.9 MB


           ************************************************************
           *        Program running with 18 parallel MPI-processes    *
           *              working on a common directory               *
           ************************************************************
-------------------------------------------------------------------------------
                                 ORCA SCF
-------------------------------------------------------------------------------

------------
SCF SETTINGS
------------
Hamiltonian:
 Ab initio Hamiltonian  Method          .... Hartree-Fock(GTOs)


General Settings:
 Integral files         IntName         .... OPT
 Hartree-Fock type      HFTyp           .... UHF
 Total Charge           Charge          ....    0
 Multiplicity           Mult            ....    2
 Number of Electrons    NEL             ....   23
 Basis Dimension        Dim             ....  146
 Nuclear Repulsion      ENuc            ....     51.4139362457 Eh

Convergence Acceleration:
 DIIS                   CNVDIIS         .... on
   Start iteration      DIISMaxIt       ....    12
   Startup error        DIISStart       ....  0.200000
   # of expansion vecs  DIISMaxEq       ....     5
   Bias factor          DIISBfac        ....   1.050
   Max. coefficient     DIISMaxC        ....  10.000
 Trust-Rad. Augm. Hess. CNVTRAH         .... auto
   Auto Start mean grad. ratio tolernc. ....  1.125000
   Auto Start start iteration           ....    20
   Auto Start num. interpolation iter.  ....    10
   Max. Number of Micro iterations      ....    16
   Max. Number of Macro iterations      .... Maxiter - #DIIS iter
   Number of Davidson start vectors     ....     2
   Converg. threshold I  (grad. norm)   ....   1.000e-05
   Converg. threshold II (energy diff.) ....   1.000e-08
   Grad. Scal. Fac. for Micro threshold ....   0.100
   Minimum threshold for Micro iter.    ....   0.010
   NR start threshold (gradient norm)   ....   0.001
   Initial trust radius                 ....   0.400
   Minimum AH scaling param. (alpha)    ....   1.000
   Maximum AH scaling param. (alpha)    .... 1000.000
   Orbital update algorithm             .... Taylor
   White noise on init. David. guess    .... on
   Maximum white noise                  ....   0.010
   Quad. conv. algorithm                .... NR
 SOSCF                  CNVSOSCF        .... off
 Level Shifting         CNVShift        .... on
   Level shift para.    LevelShift      ....    0.2500
   Turn off err/grad.   ShiftErr        ....    0.0010
 Zerner damping         CNVZerner       .... off
 Static damping         CNVDamp         .... on
   Fraction old density DampFac         ....    0.7000
   Max. Damping (<1)    DampMax         ....    0.9800
   Min. Damping (>=0)   DampMin         ....    0.0000
   Turn off err/grad.   DampErr         ....    0.1000
 Fernandez-Rico         CNVRico         .... off

SCF Procedure:
 Maximum # iterations   MaxIter         ....   125
 SCF integral mode      SCFMode         .... Direct
   Integral package                     .... SHARK and LIBINT hybrid scheme
 Reset frequency        DirectResetFreq ....    20
 Integral Threshold     Thresh          ....  2.500e-11 Eh
 Primitive CutOff       TCut            ....  2.500e-12 Eh

Convergence Tolerance:
 Convergence Check Mode ConvCheckMode   .... Total+1el-Energy
 Convergence forced     ConvForced      .... 1
 Energy Change          TolE            ....  1.000e-08 Eh
 1-El. energy change                    ....  1.000e-05 Eh
 DIIS Error             TolErr          ....  5.000e-07


Diagonalization of the overlap matrix:
Smallest eigenvalue                        ... 1.254e-04
Time for diagonalization                   ...    0.003 sec
Threshold for overlap eigenvalues          ... 1.000e-08
Number of eigenvalues below threshold      ... 0
Time for construction of square roots      ...    0.011 sec
Total time needed                          ...    0.015 sec

Time for model grid setup =    0.059 sec

------------------------------
INITIAL GUESS: MODEL POTENTIAL
------------------------------
Loading Hartree-Fock densities                     ... done
Calculating cut-offs                               ... done
Initializing the effective Hamiltonian             ... done
Setting up the integral package (SHARK)            ... done
Starting the Coulomb interaction                   ... done (   0.0 sec)
Reading the grid                                   ... done
Mapping shells                                     ... done
Starting the XC term evaluation                    ... done (   0.0 sec)
Transforming the Hamiltonian                       ... done (   0.0 sec)
Diagonalizing the Hamiltonian                      ... done (   0.0 sec)
Back transforming the eigenvectors                 ... done (   0.0 sec)
Now organizing SCF variables                       ... done
                      ------------------
                      INITIAL GUESS DONE (   0.1 sec)
                      ------------------
--------------
SCF ITERATIONS
--------------
ITER       Energy         Delta-E        Max-DP      RMS-DP      [F,P]     Damp
               ***  Starting incremental Fock matrix formation  ***
  0   -132.2642923818   0.000000000000 0.01166046  0.00041913  0.2199094 0.7000
  1   -132.3224847260  -0.058192344213 0.00872673  0.00033839  0.1409195 0.7000
                               ***Turning on DIIS***
  2   -132.3590120943  -0.036527368377 0.02151559  0.00076289  0.0975510 0.0000
  3   -132.2222309668   0.136781127527 0.00960701  0.00022594  0.0324817 0.0000
  4   -132.4199656402  -0.197734673420 0.00475222  0.00010473  0.0040715 0.0000
  5   -132.4343031929  -0.014337552689 0.00309759  0.00006405  0.0023331 0.0000
  6   -132.4362975924  -0.001994399428 0.00160347  0.00003694  0.0012979 0.0000
  7   -132.4363324875  -0.000034895139 0.00110735  0.00002985  0.0006597 0.0000
  8   -132.4365591161  -0.000226628564 0.00035185  0.00000835  0.0002971 0.0000
  9   -132.4363073325   0.000251783538 0.00031068  0.00000723  0.0002491 0.0000
 10   -132.4363585923  -0.000051259766 0.00031584  0.00000858  0.0002066 0.0000
 11   -132.4361842375   0.000174354765 0.00027432  0.00000745  0.0001365 0.0000
 12   -132.4362501901  -0.000065952593 0.00011321  0.00000333  0.0000631 0.0000
 13   -132.4362360669   0.000014123174 0.00008989  0.00000274  0.0000244 0.0000
 14   -132.4362519030  -0.000015836046 0.00007623  0.00000233  0.0000122 0.0000
 15   -132.4362702452  -0.000018342223 0.00005277  0.00000132  0.0000034 0.0000
 16   -132.4362650355   0.000005209746 0.00003532  0.00000084  0.0000031 0.0000
 17   -132.4362685389  -0.000003503462 0.00003447  0.00000082  0.0000029 0.0000
 18   -132.4362688490  -0.000000310071 0.00004630  0.00000111  0.0000029 0.0000
 19   -132.4362694558  -0.000000606796 0.00009075  0.00000217  0.0000027 0.0000
               *** Restarting incremental Fock matrix formation ***
                                   *** Resetting DIIS ***
 20   -132.4362687075   0.000000748258 0.00002300  0.00000055  0.0000025 0.0000
 21   -132.4362689264  -0.000000218900 0.00003642  0.00000087  0.0000024 0.0000
 22   -132.4362699113  -0.000000984845 0.00010235  0.00000244  0.0000022 0.0000
 23   -132.4362717967  -0.000001885413 0.00021732  0.00000518  0.0000019 0.0000

 WARNING: the maximum gradient error descreased on average only by a factor   1.1
          during the last 20 iterations

                      *** Initiating the TRAH-SCF procedure ***

 --------------------------------------------------------------------------------------------
   Iter.        energy            ||Error||_2        Shift      TRadius  Mac/Mic        Rej.
 --------------------------------------------------------------------------------------------
    0       -132.436269381370     3.707064e-05                     0.400 (TRAH MAcro)   No
    0     dE    -6.451652e-09     1.767223e-04    -6.4517e-09      0.000 (TRAH MIcro)
    0     dE    -4.506066e-08     1.724250e-04    -4.5061e-08      0.001 (TRAH MIcro)
    0     dE    -5.265087e-08     6.037609e-05    -5.2651e-08      0.002 (TRAH MIcro)
    0     dE    -5.411960e-08     2.397852e-05    -5.4119e-08      0.002 (TRAH MIcro)
    0     dE    -5.447210e-08     1.572170e-05    -5.4472e-08      0.002 (TRAH MIcro)
    0     dE    -5.452565e-08     3.514084e-06    -5.4526e-08      0.002 (TRAH MIcro)
    0     dE    -5.453412e-08     2.640402e-06    -5.4534e-08      0.002 (TRAH MIcro)
    0     dE    -5.453847e-08     1.492055e-06    -5.4538e-08      0.002 (TRAH MIcro)
    0     dE    -5.454061e-08     1.168737e-06    -5.4540e-08      0.002 (TRAH MIcro)
    0     dE    -5.454143e-08     5.392935e-07    -5.4541e-08      0.002 (TRAH MIcro)
    1       -132.436269435888     5.786515e-07                           (NR   MAcro)
    1     dE    -1.488604e-13     2.054341e-07                           (NR   MIcro)
    2       -132.436269435888     2.054341e-07                           (NR   MAcro)

               *****************************************************
               *                     SUCCESS                       *
               *           SCF CONVERGED AFTER  38 CYCLES          *
               *****************************************************


----------------
TOTAL SCF ENERGY
----------------

Total Energy       :         -132.43626944 Eh           -3603.77410 eV

Components:
Nuclear Repulsion  :           51.41393625 Eh            1399.04433 eV
Electronic Energy  :         -183.85020568 Eh           -5002.81843 eV
One Electron Energy:         -280.07473134 Eh           -7621.22090 eV
Two Electron Energy:           96.22452566 Eh            2618.40246 eV

Virial components:
Potential Energy   :         -264.64854320 Eh           -7201.45298 eV
Kinetic Energy     :          132.21227377 Eh            3597.67887 eV
Virial Ratio       :            2.00169421


---------------
SCF CONVERGENCE
---------------

  Last Energy change         ...   -8.5265e-14  Tolerance :   1.0000e-08
  Last Orbital Gradient      ...    2.0543e-07  Tolerance :   1.0000e-05
  Last Orbital Rotation      ...    3.8314e-07

             **** THE GBW FILE WAS UPDATED (OPT.gbw) ****
             **** DENSITY OPT.scfp WAS UPDATED ****
             **** ENERGY FILE WAS UPDATED (OPT.en.tmp) ****
----------------------
UHF SPIN CONTAMINATION
----------------------

Expectation value of <S**2>     :     0.760145
Ideal value S*(S+1) for S=0.5   :     0.750000
Deviation                       :     0.010145

             **** THE GBW FILE WAS UPDATED (OPT.gbw) ****
             **** DENSITY OPT.scfp WAS UPDATED ****
----------------
ORBITAL ENERGIES
----------------
                 SPIN UP ORBITALS
  NO   OCC          E(Eh)            E(eV) 
   0   1.0000     -15.593503      -424.3208 
   1   1.0000     -11.239556      -305.8439 
   2   1.0000     -11.235684      -305.7385 
   3   1.0000      -1.166021       -31.7290 
   4   1.0000      -1.025098       -27.8943 
   5   1.0000      -0.763145       -20.7662 
   6   1.0000      -0.676254       -18.4018 
   7   1.0000      -0.645576       -17.5670 
   8   1.0000      -0.517729       -14.0881 
   9   1.0000      -0.509249       -13.8574 
  10   1.0000      -0.406308       -11.0562 
  11   1.0000      -0.405463       -11.0332 
  12   0.0000       0.138846         3.7782 
  13   0.0000       0.158095         4.3020 
  14   0.0000       0.176936         4.8147 
  15   0.0000       0.178445         4.8557 
  16   0.0000       0.210695         5.7333 
  17   0.0000       0.219829         5.9818 
  18   0.0000       0.314086         8.5467 
  19   0.0000       0.414352        11.2751 
  20   0.0000       0.432079        11.7575 
  21   0.0000       0.443586        12.0706 
  22   0.0000       0.483923        13.1682 
  23   0.0000       0.509141        13.8544 
  24   0.0000       0.578044        15.7294 
  25   0.0000       0.581234        15.8162 
  26   0.0000       0.593154        16.1405 
  27   0.0000       0.597401        16.2561 
  28   0.0000       0.642020        17.4702 
  29   0.0000       0.681154        18.5351 
  30   0.0000       0.705037        19.1850 
  31   0.0000       0.725402        19.7392 
  32   0.0000       0.762804        20.7570 
  33   0.0000       0.769704        20.9447 
  34   0.0000       0.793122        21.5819 
  35   0.0000       0.802557        21.8387 
  36   0.0000       0.815482        22.1904 
  37   0.0000       0.835809        22.7435 
  38   0.0000       0.888022        24.1643 
  39   0.0000       0.974930        26.5292 
  40   0.0000       0.983857        26.7721 
  41   0.0000       1.072653        29.1884 
  42   0.0000       1.092204        29.7204 
  43   0.0000       1.100114        29.9356 
  44   0.0000       1.119547        30.4644 
  45   0.0000       1.175877        31.9973 
  46   0.0000       1.224887        33.3309 
  47   0.0000       1.235308        33.6144 
  48   0.0000       1.418651        38.6035 
  49   0.0000       1.435401        39.0592 
  50   0.0000       1.459818        39.7237 
  51   0.0000       1.509762        41.0827 
  52   0.0000       1.563179        42.5363 
  53   0.0000       1.568411        42.6786 
  54   0.0000       1.618989        44.0549 
  55   0.0000       1.677667        45.6517 
  56   0.0000       1.703954        46.3669 
  57   0.0000       1.718479        46.7622 
  58   0.0000       1.772987        48.2454 
  59   0.0000       1.784275        48.5526 
  60   0.0000       1.863314        50.7034 
  61   0.0000       2.046211        55.6802 
  62   0.0000       2.330302        63.4107 
  63   0.0000       2.363541        64.3152 
  64   0.0000       2.510209        68.3063 
  65   0.0000       2.592590        70.5480 
  66   0.0000       2.654026        72.2197 
  67   0.0000       2.666268        72.5528 
  68   0.0000       2.716794        73.9277 
  69   0.0000       2.747251        74.7565 
  70   0.0000       2.785564        75.7991 
  71   0.0000       2.795997        76.0829 
  72   0.0000       2.822867        76.8141 
  73   0.0000       2.828215        76.9596 
  74   0.0000       3.020629        82.1955 
  75   0.0000       3.032033        82.5058 
  76   0.0000       3.143545        85.5402 
  77   0.0000       3.199464        87.0618 
  78   0.0000       3.211028        87.3765 
  79   0.0000       3.220888        87.6448 
  80   0.0000       3.227290        87.8190 
  81   0.0000       3.235461        88.0414 
  82   0.0000       3.240311        88.1733 
  83   0.0000       3.249809        88.4318 
  84   0.0000       3.263630        88.8079 
  85   0.0000       3.283046        89.3362 
  86   0.0000       3.290792        89.5470 
  87   0.0000       3.300346        89.8070 
  88   0.0000       3.321939        90.3946 
  89   0.0000       3.378442        91.9321 
  90   0.0000       3.451682        93.9250 
  91   0.0000       3.471846        94.4737 
  92   0.0000       3.486015        94.8593 
  93   0.0000       3.487517        94.9002 
  94   0.0000       3.501030        95.2679 
  95   0.0000       3.546285        96.4993 
  96   0.0000       3.677432       100.0680 
  97   0.0000       3.692674       100.4828 
  98   0.0000       3.767421       102.5167 
  99   0.0000       3.788189       103.0819 
 100   0.0000       3.804131       103.5157 
 101   0.0000       3.853009       104.8457 
 102   0.0000       3.912166       106.4554 
 103   0.0000       3.914543       106.5201 
 104   0.0000       3.946408       107.3872 
 105   0.0000       4.003982       108.9539 
 106   0.0000       4.116149       112.0061 
 107   0.0000       4.169353       113.4539 
 108   0.0000       4.170654       113.4893 
 109   0.0000       4.211343       114.5965 
 110   0.0000       4.232973       115.1850 
 111   0.0000       4.298875       116.9783 
 112   0.0000       4.319797       117.5476 
 113   0.0000       4.387779       119.3975 
 114   0.0000       4.461854       121.4132 
 115   0.0000       4.516735       122.9066 
 116   0.0000       4.519554       122.9833 
 117   0.0000       4.522827       123.0724 
 118   0.0000       4.537910       123.4828 
 119   0.0000       4.626798       125.9016 
 120   0.0000       4.829754       131.4243 
 121   0.0000       4.869860       132.5156 
 122   0.0000       4.910340       133.6172 
 123   0.0000       4.914944       133.7424 
 124   0.0000       5.039718       137.1377 
 125   0.0000       5.064123       137.8018 
 126   0.0000       5.197416       141.4289 
 127   0.0000       5.213109       141.8559 
 128   0.0000       5.604644       152.5101 
 129   0.0000       5.805008       157.9623 
 130   0.0000       5.817430       158.3003 
 131   0.0000       5.822420       158.4361 
 132   0.0000       5.841448       158.9539 
 133   0.0000       5.906359       160.7202 
 134   0.0000       6.028043       164.0314 
 135   0.0000       6.152399       167.4153 
 136   0.0000       6.185253       168.3093 
 137   0.0000       6.274414       170.7355 
 138   0.0000       6.327263       172.1736 
 139   0.0000       6.340149       172.5242 
 140   0.0000       6.400774       174.1739 
 141   0.0000       6.845006       186.2621 
 142   0.0000       7.153869       194.6667 
 143   0.0000       9.585906       260.8458 
 144   0.0000      11.737724       319.3997 
 145   0.0000      16.779194       456.5851 

                 SPIN DOWN ORBITALS
  NO   OCC          E(Eh)            E(eV) 
   0   1.0000     -15.562289      -423.4714 
   1   1.0000     -11.239345      -305.8381 
   2   1.0000     -11.235519      -305.7340 
   3   1.0000      -1.044645       -28.4262 
   4   1.0000      -1.024072       -27.8664 
   5   1.0000      -0.761602       -20.7242 
   6   1.0000      -0.674545       -18.3553 
   7   1.0000      -0.621310       -16.9067 
   8   1.0000      -0.466499       -12.6941 
   9   1.0000      -0.406176       -11.0526 
  10   1.0000      -0.406092       -11.0503 
  11   0.0000       0.111342         3.0298 
  12   0.0000       0.147234         4.0064 
  13   0.0000       0.158518         4.3135 
  14   0.0000       0.177632         4.8336 
  15   0.0000       0.182787         4.9739 
  16   0.0000       0.215689         5.8692 
  17   0.0000       0.232548         6.3280 
  18   0.0000       0.317580         8.6418 
  19   0.0000       0.414653        11.2833 
  20   0.0000       0.432166        11.7598 
  21   0.0000       0.456916        12.4333 
  22   0.0000       0.483366        13.1531 
  23   0.0000       0.515825        14.0363 
  24   0.0000       0.582350        15.8466 
  25   0.0000       0.592939        16.1347 
  26   0.0000       0.601868        16.3777 
  27   0.0000       0.624354        16.9895 
  28   0.0000       0.653226        17.7752 
  29   0.0000       0.717515        19.5246 
  30   0.0000       0.719993        19.5920 
  31   0.0000       0.762624        20.7521 
  32   0.0000       0.767448        20.8833 
  33   0.0000       0.772892        21.0314 
  34   0.0000       0.808064        21.9885 
  35   0.0000       0.817003        22.2318 
  36   0.0000       0.822118        22.3710 
  37   0.0000       0.861429        23.4407 
  38   0.0000       0.906437        24.6654 
  39   0.0000       0.979571        26.6555 
  40   0.0000       1.002720        27.2854 
  41   0.0000       1.072950        29.1965 
  42   0.0000       1.093879        29.7660 
  43   0.0000       1.100624        29.9495 
  44   0.0000       1.122201        30.5367 
  45   0.0000       1.174119        31.9494 
  46   0.0000       1.228760        33.4363 
  47   0.0000       1.250416        34.0255 
  48   0.0000       1.442216        39.2447 
  49   0.0000       1.454815        39.5875 
  50   0.0000       1.462305        39.7914 
  51   0.0000       1.523906        41.4676 
  52   0.0000       1.598073        43.4858 
  53   0.0000       1.616496        43.9871 
  54   0.0000       1.621878        44.1335 
  55   0.0000       1.680815        45.7373 
  56   0.0000       1.706793        46.4442 
  57   0.0000       1.731797        47.1246 
  58   0.0000       1.781670        48.4817 
  59   0.0000       1.800216        48.9864 
  60   0.0000       1.892112        51.4870 
  61   0.0000       2.046771        55.6955 
  62   0.0000       2.330411        63.4137 
  63   0.0000       2.364733        64.3476 
  64   0.0000       2.510365        68.3105 
  65   0.0000       2.592454        70.5443 
  66   0.0000       2.661973        72.4360 
  67   0.0000       2.667058        72.5743 
  68   0.0000       2.717021        73.9339 
  69   0.0000       2.749322        74.8129 
  70   0.0000       2.785731        75.8036 
  71   0.0000       2.796233        76.0894 
  72   0.0000       2.823018        76.8182 
  73   0.0000       2.829000        76.9810 
  74   0.0000       3.020838        82.2012 
  75   0.0000       3.035319        82.5952 
  76   0.0000       3.145793        85.6014 
  77   0.0000       3.205709        87.2318 
  78   0.0000       3.211233        87.3821 
  79   0.0000       3.227205        87.8167 
  80   0.0000       3.227675        87.8295 
  81   0.0000       3.240465        88.1775 
  82   0.0000       3.241312        88.2006 
  83   0.0000       3.260472        88.7219 
  84   0.0000       3.276668        89.1627 
  85   0.0000       3.286144        89.4205 
  86   0.0000       3.300513        89.8115 
  87   0.0000       3.302188        89.8571 
  88   0.0000       3.369303        91.6834 
  89   0.0000       3.397480        92.4501 
  90   0.0000       3.461504        94.1923 
  91   0.0000       3.477016        94.6144 
  92   0.0000       3.489702        94.9596 
  93   0.0000       3.492868        95.0458 
  94   0.0000       3.509748        95.5051 
  95   0.0000       3.552695        96.6738 
  96   0.0000       3.689546       100.3976 
  97   0.0000       3.692480       100.4775 
  98   0.0000       3.774551       102.7107 
  99   0.0000       3.796274       103.3019 
 100   0.0000       3.835636       104.3730 
 101   0.0000       3.855395       104.9106 
 102   0.0000       3.912623       106.4679 
 103   0.0000       3.914652       106.5231 
 104   0.0000       3.959571       107.7454 
 105   0.0000       4.017050       109.3095 
 106   0.0000       4.121148       112.1421 
 107   0.0000       4.171380       113.5090 
 108   0.0000       4.176180       113.6396 
 109   0.0000       4.215375       114.7062 
 110   0.0000       4.256582       115.8275 
 111   0.0000       4.299404       116.9927 
 112   0.0000       4.341197       118.1300 
 113   0.0000       4.396850       119.6444 
 114   0.0000       4.469278       121.6153 
 115   0.0000       4.517372       122.9240 
 116   0.0000       4.520296       123.0035 
 117   0.0000       4.523937       123.1026 
 118   0.0000       4.596709       125.0828 
 119   0.0000       4.642050       126.3166 
 120   0.0000       4.830158       131.4353 
 121   0.0000       4.902741       133.4104 
 122   0.0000       4.910822       133.6303 
 123   0.0000       4.921126       133.9106 
 124   0.0000       5.107185       138.9736 
 125   0.0000       5.123209       139.4096 
 126   0.0000       5.209934       141.7695 
 127   0.0000       5.223172       142.1297 
 128   0.0000       5.639149       153.4490 
 129   0.0000       5.816347       158.2709 
 130   0.0000       5.818184       158.3208 
 131   0.0000       5.824312       158.4876 
 132   0.0000       5.872762       159.8060 
 133   0.0000       5.923953       161.1990 
 134   0.0000       6.059321       164.8825 
 135   0.0000       6.153168       167.4362 
 136   0.0000       6.193204       168.5256 
 137   0.0000       6.280914       170.9124 
 138   0.0000       6.327575       172.1821 
 139   0.0000       6.340611       172.5368 
 140   0.0000       6.401328       174.1890 
 141   0.0000       6.845149       186.2660 
 142   0.0000       7.163882       194.9392 
 143   0.0000       9.586130       260.8519 
 144   0.0000      11.760026       320.0066 
 145   0.0000      16.779345       456.5892 

                    ********************************
                    * MULLIKEN POPULATION ANALYSIS *
                    ********************************

--------------------------------------------
MULLIKEN ATOMIC CHARGES AND SPIN POPULATIONS
--------------------------------------------
   0 C :   -0.196287   -0.045024
   1 C :   -0.231510    0.054542
   2 H :    0.199206   -0.002778
   3 N :   -0.333280    1.091859
   4 H :    0.171438   -0.047323
   5 H :    0.171310   -0.047355
   6 H :    0.219123   -0.003921
Sum of atomic charges         :   -0.0000000
Sum of atomic spin populations:    1.0000000

-----------------------------------------------------
MULLIKEN REDUCED ORBITAL CHARGES AND SPIN POPULATIONS
-----------------------------------------------------
CHARGE
  0 C s       :     3.345584  s :     3.345584
      pz      :     0.943901  p :     2.782781
      px      :     0.957999
      py      :     0.880881
      dz2     :     0.009459  d :     0.060173
      dxz     :     0.003494
      dyz     :     0.018768
      dx2y2   :     0.014748
      dxy     :     0.013704
      f0      :     0.000245  f :     0.007750
      f+1     :     0.000001
      f-1     :     0.002633
      f+2     :     0.000833
      f-2     :     0.001337
      f+3     :     0.001929
      f-3     :     0.000771
  1 C s       :     3.336410  s :     3.336410
      pz      :     0.955832  p :     2.825679
      px      :     0.984956
      py      :     0.884891
      dz2     :     0.009566  d :     0.061682
      dxz     :     0.003786
      dyz     :     0.019005
      dx2y2   :     0.014818
      dxy     :     0.014507
      f0      :     0.000247  f :     0.007739
      f+1     :     0.000001
      f-1     :     0.002618
      f+2     :     0.000840
      f-2     :     0.001325
      f+3     :     0.001922
      f-3     :     0.000786
  2 H s       :     0.775306  s :     0.775306
      pz      :     0.008068  p :     0.024268
      px      :     0.008320
      py      :     0.007880
      dz2     :     0.000101  d :     0.001219
      dxz     :     0.000031
      dyz     :     0.000505
      dx2y2   :     0.000459
      dxy     :     0.000123
  3 N s       :     3.724559  s :     3.724559
      pz      :     1.081185  p :     3.579875
      px      :     1.199608
      py      :     1.299082
      dz2     :     0.001535  d :     0.028164
      dxz     :     0.008998
      dyz     :     0.007074
      dx2y2   :     0.005880
      dxy     :     0.004677
      f0      :     0.000032  f :     0.000682
      f+1     :     0.000223
      f-1     :     0.000067
      f+2     :     0.000345
      f-2     :    -0.000026
      f+3     :     0.000022
      f-3     :     0.000020
  4 H s       :     0.774724  s :     0.774724
      pz      :     0.015910  p :     0.049885
      px      :     0.016912
      py      :     0.017063
      dz2     :     0.000938  d :     0.003953
      dxz     :     0.001236
      dyz     :     0.000901
      dx2y2   :     0.000432
      dxy     :     0.000446
  5 H s       :     0.774849  s :     0.774849
      pz      :     0.013529  p :     0.049887
      px      :     0.015808
      py      :     0.020551
      dz2     :     0.000743  d :     0.003954
      dxz     :     0.000433
      dyz     :     0.001063
      dx2y2   :     0.000869
      dxy     :     0.000846
  6 H s       :     0.756272  s :     0.756272
      pz      :     0.008167  p :     0.023472
      px      :     0.007618
      py      :     0.007687
      dz2     :     0.000080  d :     0.001133
      dxz     :     0.000019
      dyz     :     0.000517
      dx2y2   :     0.000454
      dxy     :     0.000063

SPIN
  0 C s       :    -0.005752  s :    -0.005752
      pz      :    -0.012027  p :    -0.041180
      px      :    -0.028589
      py      :    -0.000564
      dz2     :     0.000122  d :     0.001716
      dxz     :     0.000302
      dyz     :     0.000445
      dx2y2   :     0.000097
      dxy     :     0.000749
      f0      :     0.000006  f :     0.000192
      f+1     :    -0.000000
      f-1     :     0.000042
      f+2     :     0.000033
      f-2     :     0.000026
      f+3     :     0.000055
      f-3     :     0.000030
  1 C s       :     0.005105  s :     0.005105
      pz      :     0.014348  p :     0.051090
      px      :     0.031051
      py      :     0.005691
      dz2     :    -0.000159  d :    -0.001483
      dxz     :    -0.000112
      dyz     :    -0.000406
      dx2y2   :    -0.000420
      dxy     :    -0.000386
      f0      :    -0.000005  f :    -0.000171
      f+1     :     0.000000
      f-1     :    -0.000037
      f+2     :    -0.000030
      f-2     :    -0.000023
      f+3     :    -0.000046
      f-3     :    -0.000029
  2 H s       :    -0.003480  s :    -0.003480
      pz      :     0.000189  p :     0.000664
      px      :     0.000355
      py      :     0.000120
      dz2     :     0.000005  d :     0.000038
      dxz     :     0.000004
      dyz     :     0.000010
      dx2y2   :     0.000004
      dxy     :     0.000015
  3 N s       :     0.059020  s :     0.059020
      pz      :     0.254522  p :     1.033735
      px      :     0.516940
      py      :     0.262274
      dz2     :    -0.000302  d :    -0.000112
      dxz     :    -0.000644
      dyz     :    -0.000593
      dx2y2   :     0.000949
      dxy     :     0.000477
      f0      :    -0.000017  f :    -0.000783
      f+1     :    -0.000282
      f-1     :    -0.000021
      f+2     :    -0.000281
      f-2     :    -0.000047
      f+3     :    -0.000088
      f-3     :    -0.000046
  4 H s       :    -0.058146  s :    -0.058146
      pz      :     0.002109  p :     0.009835
      px      :     0.005963
      py      :     0.001764
      dz2     :     0.000331  d :     0.000988
      dxz     :     0.000151
      dyz     :     0.000211
      dx2y2   :     0.000289
      dxy     :     0.000005
  5 H s       :    -0.058189  s :    -0.058189
      pz      :     0.001789  p :     0.009846
      px      :     0.004854
      py      :     0.003203
      dz2     :     0.000166  d :     0.000988
      dxz     :     0.000241
      dyz     :     0.000067
      dx2y2   :     0.000320
      dxy     :     0.000194
  6 H s       :    -0.004619  s :    -0.004619
      pz      :     0.000200  p :     0.000706
      px      :    -0.000105
      py      :     0.000612
      dz2     :    -0.000004  d :    -0.000008
      dxz     :    -0.000005
      dyz     :    -0.000001
      dx2y2   :     0.000015
      dxy     :    -0.000014


                     *******************************
                     * LOEWDIN POPULATION ANALYSIS *
                     *******************************

-------------------------------------------
LOEWDIN ATOMIC CHARGES AND SPIN POPULATIONS
-------------------------------------------
   0 C :    0.055549   -0.021112
   1 C :    0.041790    0.030535
   2 H :   -0.056294    0.002031
   3 N :    0.278074    0.894660
   4 H :   -0.130999    0.046393
   5 H :   -0.130927    0.046381
   6 H :   -0.057194    0.001111

----------------------------------------------------
LOEWDIN REDUCED ORBITAL CHARGES AND SPIN POPULATIONS
----------------------------------------------------
CHARGE
  0 C s       :     2.825909  s :     2.825909
      pz      :     0.939853  p :     2.908892
      px      :     0.886808
      py      :     1.082231
      dz2     :     0.028184  d :     0.180386
      dxz     :     0.011421
      dyz     :     0.054351
      dx2y2   :     0.043581
      dxy     :     0.042849
      f0      :     0.003265  f :     0.029264
      f+1     :     0.000001
      f-1     :     0.005177
      f+2     :     0.008435
      f-2     :     0.002617
      f+3     :     0.003879
      f-3     :     0.005890
  1 C s       :     2.822898  s :     2.822898
      pz      :     0.946425  p :     2.929976
      px      :     0.902510
      py      :     1.081041
      dz2     :     0.027670  d :     0.176258
      dxz     :     0.010429
      dyz     :     0.054145
      dx2y2   :     0.043774
      dxy     :     0.040240
      f0      :     0.003295  f :     0.029077
      f+1     :     0.000001
      f-1     :     0.005070
      f+2     :     0.008477
      f-2     :     0.002555
      f+3     :     0.003736
      f-3     :     0.005944
  2 H s       :     0.860582  s :     0.860582
      pz      :     0.050263  p :     0.168885
      px      :     0.040638
      py      :     0.077984
      dz2     :     0.004197  d :     0.026827
      dxz     :     0.001602
      dyz     :     0.008263
      dx2y2   :     0.006640
      dxy     :     0.006125
  3 N s       :     3.156687  s :     3.156687
      pz      :     1.095992  p :     3.500171
      px      :     1.130764
      py      :     1.273416
      dz2     :     0.006137  d :     0.059546
      dxz     :     0.020219
      dyz     :     0.019588
      dx2y2   :     0.011372
      dxy     :     0.002229
      f0      :     0.000800  f :     0.005522
      f+1     :     0.001066
      f-1     :     0.000383
      f+2     :     0.001185
      f-2     :     0.001141
      f+3     :     0.000378
      f-3     :     0.000569
  4 H s       :     0.804550  s :     0.804550
      pz      :     0.097945  p :     0.269760
      px      :     0.095567
      py      :     0.076249
      dz2     :     0.015121  d :     0.056689
      dxz     :     0.014700
      dyz     :     0.013628
      dx2y2   :     0.006014
      dxy     :     0.007225
  5 H s       :     0.804548  s :     0.804548
      pz      :     0.074357  p :     0.269708
      px      :     0.071735
      py      :     0.123616
      dz2     :     0.013033  d :     0.056670
      dxz     :     0.006643
      dyz     :     0.013660
      dx2y2   :     0.010714
      dxy     :     0.012620
  6 H s       :     0.856219  s :     0.856219
      pz      :     0.051183  p :     0.174097
      px      :     0.041289
      py      :     0.081625
      dz2     :     0.004142  d :     0.026878
      dxz     :     0.001667
      dyz     :     0.008258
      dx2y2   :     0.006795
      dxy     :     0.006016

SPIN
  0 C s       :    -0.000611  s :    -0.000611
      pz      :    -0.008465  p :    -0.027872
      px      :    -0.017600
      py      :    -0.001807
      dz2     :     0.000721  d :     0.006503
      dxz     :     0.001141
      dyz     :     0.000886
      dx2y2   :     0.000906
      dxy     :     0.002850
      f0      :     0.000012  f :     0.000868
      f+1     :     0.000000
      f-1     :     0.000230
      f+2     :     0.000067
      f-2     :     0.000191
      f+3     :     0.000303
      f-3     :     0.000065
  1 C s       :     0.001744  s :     0.001744
      pz      :     0.009333  p :     0.034026
      px      :     0.021562
      py      :     0.003132
      dz2     :    -0.000733  d :    -0.004451
      dxz     :    -0.000508
      dyz     :    -0.000736
      dx2y2   :    -0.000588
      dxy     :    -0.001887
      f0      :    -0.000012  f :    -0.000785
      f+1     :    -0.000000
      f-1     :    -0.000220
      f+2     :    -0.000056
      f-2     :    -0.000174
      f+3     :    -0.000259
      f-3     :    -0.000063
  2 H s       :    -0.001710  s :    -0.001710
      pz      :     0.000828  p :     0.003146
      px      :     0.001678
      py      :     0.000640
      dz2     :     0.000101  d :     0.000595
      dxz     :     0.000074
      dyz     :     0.000089
      dx2y2   :     0.000050
      dxy     :     0.000280
  3 N s       :     0.021058  s :     0.021058
      pz      :     0.210665  p :     0.877705
      px      :     0.444499
      py      :     0.222542
      dz2     :    -0.000378  d :    -0.004090
      dxz     :    -0.001341
      dyz     :    -0.001115
      dx2y2   :    -0.000706
      dxy     :    -0.000551
      f0      :     0.000178  f :    -0.000013
      f+1     :    -0.000299
      f-1     :     0.000067
      f+2     :    -0.000304
      f-2     :     0.000274
      f+3     :    -0.000012
      f-3     :     0.000084
  4 H s       :    -0.031410  s :    -0.031410
      pz      :     0.016800  p :     0.060264
      px      :     0.030829
      py      :     0.012634
      dz2     :     0.006756  d :     0.017539
      dxz     :     0.002248
      dyz     :     0.003753
      dx2y2   :     0.004087
      dxy     :     0.000695
  5 H s       :    -0.031423  s :    -0.031423
      pz      :     0.014613  p :     0.060272
      px      :     0.027486
      py      :     0.018172
      dz2     :     0.003822  d :     0.017532
      dxz     :     0.004094
      dyz     :     0.001083
      dx2y2   :     0.004565
      dxy     :     0.003969
  6 H s       :     0.002180  s :     0.002180
      pz      :    -0.000345  p :    -0.000734
      px      :    -0.000378
      py      :    -0.000011
      dz2     :    -0.000093  d :    -0.000334
      dxz     :    -0.000026
      dyz     :    -0.000062
      dx2y2   :     0.000073
      dxy     :    -0.000226


                      *****************************
                      * MAYER POPULATION ANALYSIS *
                      *****************************

  NA   - Mulliken gross atomic population
  ZA   - Total nuclear charge
  QA   - Mulliken gross atomic charge
  VA   - Mayer's total valence
  BVA  - Mayer's bonded valence
  FA   - Mayer's free valence

  ATOM       NA         ZA         QA         VA         BVA        FA
  0 C      6.1963     6.0000    -0.1963     3.7054     3.7041     0.0012
  1 C      6.2315     6.0000    -0.2315     3.7514     3.7501     0.0013
  2 H      0.8008     1.0000     0.1992     0.9573     0.9573     0.0000
  3 N      7.3333     7.0000    -0.3333     2.9382     1.9754     0.9629
  4 H      0.8286     1.0000     0.1714     0.9880     0.9844     0.0035
  5 H      0.8287     1.0000     0.1713     0.9880     0.9845     0.0035
  6 H      0.7809     1.0000     0.2191     0.9652     0.9651     0.0001

  Mayer bond orders larger than 0.100000
B(  0-C ,  1-C ) :   2.7883 B(  0-C ,  6-H ) :   0.9080 B(  1-C ,  2-H ) :   0.9340 
B(  3-N ,  4-H ) :   0.9751 B(  3-N ,  5-H ) :   0.9752 


                ***UHF Natural Orbitals were saved in OPT.unso***


                ***UHF Natural Orbitals were saved in OPT.uno***

QR-MO GENERATION
 Dim     =  146
 Mult    =    2
 NEl     =   23
 N(DOMO) =   11
 N(SOMO) =    1
 N(VMO)  =  134


                ***Quasi-Restricted Orbitals were saved in OPT.qro***

Orbital Energies of Quasi-Restricted MO's
   0( 2) :   -15.562266 a.u.  -423.471 eV
   1( 2) :   -11.239332 a.u.  -305.838 eV
   2( 2) :   -11.235538 a.u.  -305.735 eV
   3( 2) :    -1.041970 a.u.   -28.353 eV
   4( 2) :    -1.023999 a.u.   -27.864 eV
   5( 2) :    -0.761603 a.u.   -20.724 eV
   6( 2) :    -0.674541 a.u.   -18.355 eV
   7( 2) :    -0.620668 a.u.   -16.889 eV
   8( 2) :    -0.465766 a.u.   -12.674 eV
   9( 2) :    -0.406063 a.u.   -11.050 eV
  10( 2) :    -0.406057 a.u.   -11.049 eV
  11( 1) :    -0.169710 a.u.    -4.618 eV alpha=  -14.024 beta=    4.788
  12( 0) :     0.138517 a.u.     3.769 eV
  13( 0) :     0.158104 a.u.     4.302 eV
  14( 0) :     0.176914 a.u.     4.814 eV
  15( 0) :     0.178369 a.u.     4.854 eV
  16( 0) :     0.210526 a.u.     5.729 eV
  17( 0) :     0.219739 a.u.     5.979 eV
  18( 0) :     0.314041 a.u.     8.545 eV
  19( 0) :     0.414348 a.u.    11.275 eV
  20( 0) :     0.432038 a.u.    11.756 eV
  21( 0) :     0.443560 a.u.    12.070 eV
  22( 0) :     0.483893 a.u.    13.167 eV
  23( 0) :     0.508967 a.u.    13.850 eV
  24( 0) :     0.577483 a.u.    15.714 eV
  25( 0) :     0.581202 a.u.    15.815 eV
  26( 0) :     0.593070 a.u.    16.138 eV
  27( 0) :     0.597198 a.u.    16.251 eV
  28( 0) :     0.641949 a.u.    17.468 eV
  29( 0) :     0.681102 a.u.    18.534 eV
  30( 0) :     0.704822 a.u.    19.179 eV
  31( 0) :     0.725331 a.u.    19.737 eV
  32( 0) :     0.762719 a.u.    20.755 eV
  33( 0) :     0.769694 a.u.    20.944 eV
  34( 0) :     0.793083 a.u.    21.581 eV
  35( 0) :     0.802468 a.u.    21.836 eV
  36( 0) :     0.815473 a.u.    22.190 eV
  37( 0) :     0.835818 a.u.    22.744 eV
  38( 0) :     0.887983 a.u.    24.163 eV
  39( 0) :     0.974935 a.u.    26.529 eV
  40( 0) :     0.983865 a.u.    26.772 eV
  41( 0) :     1.072652 a.u.    29.188 eV
  42( 0) :     1.092203 a.u.    29.720 eV
  43( 0) :     1.100111 a.u.    29.936 eV
  44( 0) :     1.119527 a.u.    30.464 eV
  45( 0) :     1.175863 a.u.    31.997 eV
  46( 0) :     1.224845 a.u.    33.330 eV
  47( 0) :     1.235264 a.u.    33.613 eV
  48( 0) :     1.417932 a.u.    38.584 eV
  49( 0) :     1.435392 a.u.    39.059 eV
  50( 0) :     1.459818 a.u.    39.724 eV
  51( 0) :     1.509630 a.u.    41.079 eV
  52( 0) :     1.563172 a.u.    42.536 eV
  53( 0) :     1.568410 a.u.    42.679 eV
  54( 0) :     1.618990 a.u.    44.055 eV
  55( 0) :     1.677668 a.u.    45.652 eV
  56( 0) :     1.703939 a.u.    46.367 eV
  57( 0) :     1.718409 a.u.    46.760 eV
  58( 0) :     1.772977 a.u.    48.245 eV
  59( 0) :     1.784173 a.u.    48.550 eV
  60( 0) :     1.863251 a.u.    50.702 eV
  61( 0) :     2.046209 a.u.    55.680 eV
  62( 0) :     2.330302 a.u.    63.411 eV
  63( 0) :     2.363541 a.u.    64.315 eV
  64( 0) :     2.510208 a.u.    68.306 eV
  65( 0) :     2.592562 a.u.    70.547 eV
  66( 0) :     2.653949 a.u.    72.218 eV
  67( 0) :     2.666267 a.u.    72.553 eV
  68( 0) :     2.716795 a.u.    73.928 eV
  69( 0) :     2.747254 a.u.    74.757 eV
  70( 0) :     2.785562 a.u.    75.799 eV
  71( 0) :     2.795982 a.u.    76.083 eV
  72( 0) :     2.822868 a.u.    76.814 eV
  73( 0) :     2.828218 a.u.    76.960 eV
  74( 0) :     3.020629 a.u.    82.195 eV
  75( 0) :     3.032039 a.u.    82.506 eV
  76( 0) :     3.143545 a.u.    85.540 eV
  77( 0) :     3.199452 a.u.    87.062 eV
  78( 0) :     3.211025 a.u.    87.376 eV
  79( 0) :     3.220884 a.u.    87.645 eV
  80( 0) :     3.227297 a.u.    87.819 eV
  81( 0) :     3.235463 a.u.    88.041 eV
  82( 0) :     3.240314 a.u.    88.173 eV
  83( 0) :     3.249808 a.u.    88.432 eV
  84( 0) :     3.263644 a.u.    88.808 eV
  85( 0) :     3.283052 a.u.    89.336 eV
  86( 0) :     3.290805 a.u.    89.547 eV
  87( 0) :     3.300337 a.u.    89.807 eV
  88( 0) :     3.321921 a.u.    90.394 eV
  89( 0) :     3.378424 a.u.    91.932 eV
  90( 0) :     3.451684 a.u.    93.925 eV
  91( 0) :     3.471845 a.u.    94.474 eV
  92( 0) :     3.486012 a.u.    94.859 eV
  93( 0) :     3.487509 a.u.    94.900 eV
  94( 0) :     3.501018 a.u.    95.268 eV
  95( 0) :     3.546274 a.u.    96.499 eV
  96( 0) :     3.677421 a.u.   100.068 eV
  97( 0) :     3.692673 a.u.   100.483 eV
  98( 0) :     3.767420 a.u.   102.517 eV
  99( 0) :     3.788188 a.u.   103.082 eV
 100( 0) :     3.804129 a.u.   103.516 eV
 101( 0) :     3.853007 a.u.   104.846 eV
 102( 0) :     3.912162 a.u.   106.455 eV
 103( 0) :     3.914541 a.u.   106.520 eV
 104( 0) :     3.946399 a.u.   107.387 eV
 105( 0) :     4.003935 a.u.   108.953 eV
 106( 0) :     4.116149 a.u.   112.006 eV
 107( 0) :     4.169350 a.u.   113.454 eV
 108( 0) :     4.170651 a.u.   113.489 eV
 109( 0) :     4.211338 a.u.   114.596 eV
 110( 0) :     4.232957 a.u.   115.185 eV
 111( 0) :     4.298874 a.u.   116.978 eV
 112( 0) :     4.319777 a.u.   117.547 eV
 113( 0) :     4.387771 a.u.   119.397 eV
 114( 0) :     4.461851 a.u.   121.413 eV
 115( 0) :     4.516734 a.u.   122.907 eV
 116( 0) :     4.519545 a.u.   122.983 eV
 117( 0) :     4.522818 a.u.   123.072 eV
 118( 0) :     4.537747 a.u.   123.478 eV
 119( 0) :     4.626786 a.u.   125.901 eV
 120( 0) :     4.829752 a.u.   131.424 eV
 121( 0) :     4.869859 a.u.   132.516 eV
 122( 0) :     4.910339 a.u.   133.617 eV
 123( 0) :     4.914942 a.u.   133.742 eV
 124( 0) :     5.039716 a.u.   137.138 eV
 125( 0) :     5.064122 a.u.   137.802 eV
 126( 0) :     5.197388 a.u.   141.428 eV
 127( 0) :     5.213103 a.u.   141.856 eV
 128( 0) :     5.604582 a.u.   152.508 eV
 129( 0) :     5.805002 a.u.   157.962 eV
 130( 0) :     5.817429 a.u.   158.300 eV
 131( 0) :     5.822418 a.u.   158.436 eV
 132( 0) :     5.841447 a.u.   158.954 eV
 133( 0) :     5.906335 a.u.   160.720 eV
 134( 0) :     6.028042 a.u.   164.031 eV
 135( 0) :     6.152399 a.u.   167.415 eV
 136( 0) :     6.185251 a.u.   168.309 eV
 137( 0) :     6.274412 a.u.   170.735 eV
 138( 0) :     6.327262 a.u.   172.174 eV
 139( 0) :     6.340147 a.u.   172.524 eV
 140( 0) :     6.400772 a.u.   174.174 eV
 141( 0) :     6.845006 a.u.   186.262 eV
 142( 0) :     7.153868 a.u.   194.667 eV
 143( 0) :     9.585904 a.u.   260.846 eV
 144( 0) :    11.737721 a.u.   319.400 eV
 145( 0) :    16.779192 a.u.   456.585 eV
-------
TIMINGS
-------

Total SCF time: 0 days 0 hours 0 min 7 sec 

Total time                  ....       7.470 sec
Sum of individual times     ....       6.747 sec  ( 90.3%)

Fock matrix formation       ....       5.908 sec  ( 79.1%)
Diagonalization             ....       0.288 sec  (  3.8%)
Density matrix formation    ....       0.025 sec  (  0.3%)
Population analysis         ....       0.056 sec  (  0.8%)
Initial guess               ....       0.042 sec  (  0.6%)
Orbital Transformation      ....       0.125 sec  (  1.7%)
Orbital Orthonormalization  ....       0.000 sec  (  0.0%)
DIIS solution               ....       0.240 sec  (  3.2%)

Maximum memory used throughout the entire SCF-calculation: 227.6 MB


           ************************************************************
           *        Program running with 18 parallel MPI-processes    *
           *              working on a common directory               *
           ************************************************************


------------------------------------------------------------------------------- 
                              ORCA-MATRIX DRIVEN CI                            
------------------------------------------------------------------------------- 

--------------------------------
AUTOMATIC CHOICE OF INCORE LEVEL
--------------------------------

Memory available                           ...   4666.00 MB
Memory needed for S+T                      ...     18.49 MB
Memory needed for J+K                      ...     37.08 MB
Memory needed for DIIS                     ...    258.92 MB
Memory needed for 3-ext                    ...    165.21 MB
Memory needed for 4-ext                    ...   1239.11 MB
Memory needed for triples                  ...     91.79 MB
 -> Final InCoreLevel    ... 5
 -> check shows that triples correction can be computed


Wavefunction type
-----------------
Correlation treatment                      ...      CCSD     
Single excitations                         ... ON
Orbital optimization                       ... OFF
Calculation of Z vector                    ... OFF
Calculation of Brueckner orbitals          ... OFF
Perturbative triple excitations            ... ON
Calculation of F12 correction              ... OFF
Frozen core treatment                      ... chemical core (6 el)
Reference Wavefunction                     ... UHF
  Alpha-MOs occ    :     3 ...   11 (  9 MO's/  9 electrons)
  Beta-MOs occ     :     3 ...   10 (  8 MO's/  8 electrons)
  Alpha-MOs virt   :    12 ...  145 (134 MO's              )
  Beta-MOs virt    :    11 ...  145 (135 MO's              )
  Quasi restricted orbitals will be used (this is similar to a ROHF determinant)
Number of AO's                             ...    146
Number of electrons                        ...     23
Number of correlated electrons             ...     17

Algorithmic settings
--------------------
Integral transformation                    ... AO direct full transformation
K(C) Formation                             ... FULL-MO TRAFO
Maximum number of iterations               ...        50
Convergence tolerance (max. residuum)      ... 1.000e-05
Level shift for amplitude update           ... 2.000e-01
Maximum number of DIIS vectors             ...         7
DIIS turned on at iteration                ...         0
Damping before turning on DIIS             ...     0.500
Damping after turning on DIIS              ...     0.000
Pair specific amplitude update             ... OFF
Natural orbital iterations                 ... OFF
Perturbative natural orbital generation    ... OFF
Printlevel                                 ... 2

Memory handling:
----------------
Maximum memory for working arrays          ...   4666 MB
Data storage in matrix containers          ... UNCOMPRESSED
Data type for integral storage             ... DOUBLE
In-Core Storage of quantities:
   Amplitudes+Sigma Vector      ... YES
   J+K operators                ... YES
   DIIS vectors                 ... YES
   3-external integrals         ... YES
   4-external integrals         ... YES


Initializing the integral package          ... done
Re-Reading QRO orbitals for the actual calculation
  ... duplicating orbitals and energies 
  ... adjusting occupation numbers
Warning: reference  - re-canonicalizations have been set to INT 1 VIRT 1

--------------------------
UNRESTRICTED FOCK OPERATOR
--------------------------

Restoring SHARK [2] ... ok
Recanonicalizing the internal orbitals
Recanonicalizing the virtual orbitals
Time needed for Fock operator              ...            0.275 sec
Reference energy                           ...   -132.431286521
Warning: for UHF the TrafoType has to be JK
Warning: for UHF the K(C)-option but must be AOX

-------------------------------
PARTIAL EXCHANGE TRANSFORMATION
-------------------------------

Transformation type                        ... two-operators
Generation of integrals (i,mue|j,nue)      ... ON
Generation of integrals (mue,kappa|nue,tau)... ON
Generation of integrals (i,mue|a,nue)      ... ON
Dimension of the basis                     ...  146
Number of internal alpha-MOs               ...    9 (   3-  11)
Number of internal beta-MOs                ...    8 (   3-  10)
Number of external alpha-MOs               ...  134 (  12- 145)
Number of external beta-MOs                ...  135 (  11- 145)
Pair cutoff                                ... 0.000e+00 Eh
Number of AO pairs in the trafo            ... 10731
Total Number of distinct AO pairs          ... 10731
Memory devoted for trafo                   ... 4666.0 MB 
Max. Number of MO pairs treated together   ... 28691      
Number Format for Storage                  ... Double (8 Byte)
Integral package used                      ... LIBINT

Starting integral evaluation:
    ... done with AO integral generation
Closing buffer AOK[aa] ( 0.01 GB; CompressionRatio= 0.98)
Closing buffer AOK[bb] ( 0.01 GB; CompressionRatio= 0.98)
Closing buffer AOK[ab] ( 0.01 GB; CompressionRatio= 0.98)
Closing buffer AOK[ba] ( 0.01 GB; CompressionRatio= 0.98)
Collecting buffer AOK 
Closing buffer IAAO1[aa] ( 0.10 GB; CompressionRatio= 1.00)
Closing buffer IAAO1[bb] ( 0.09 GB; CompressionRatio= 1.00)
Closing buffer IAAO1[ab] ( 0.10 GB; CompressionRatio= 1.00)
Closing buffer IAAO1[ba] ( 0.09 GB; CompressionRatio= 1.00)
Closing buffer IAAO2[aa] ( 0.10 GB; CompressionRatio= 1.00)
Closing buffer IAAO2[bb] ( 0.09 GB; CompressionRatio= 1.00)
Closing buffer IAAO2[ab] ( 0.10 GB; CompressionRatio= 1.00)
Closing buffer IAAO2[ba] ( 0.09 GB; CompressionRatio= 1.00)
Collecting buffer IAAO 
Closing buffer PRQS    ( 1.70 GB; CompressionRatio= 1.00)
Collecting buffer PRQS 
Number of alpha/alpha MO pairs in trafo    ...   45
Number of beta /beta  MO pairs in trafo    ...   36
Number of alpha/ beta MO pairs in trafo    ...   72
------------------------
SORTING OF (i,mue|j,nue)
------------------------

SORTING OF ALPHA/ALPHA PAIRS
IBATCH = 1 of  1
Closing buffer KAO[aa] ( 0.01 GB; CompressionRatio= 1.00)
Collecting buffer KAO 
SORTING OF BETA /BETA  PAIRS
IBATCH = 1 of  1
Closing buffer KAO[bb] ( 0.01 GB; CompressionRatio= 1.00)
Collecting buffer KAO 
SORTING OF ALPHA/BETA  PAIRS
IBATCH = 1 of  1
Closing buffer KAO[ab] ( 0.01 GB; CompressionRatio= 0.999929635276)
Collecting buffer KAO[ab] 
------------------------
SORTING OF (i,mue|a,nue)
------------------------

Number of alpha/alpha (i,a) pairs in trafo  ... 1206
Number of beta /beta  (i,a) pairs in trafo  ... 1080
Number of alpha/ beta (i,a) pairs in trafo  ... 1215
Number of beta /alpha (i,a) pairs in trafo  ... 1072
Setting up the alpha/alpha list             ... done
Setting up the beta /beta  list             ... done
Setting up the alpha/beta  list             ... done
Setting up the beta /alpha list             ... done
    ... Now sorting (i,mue|a,nue)integrals
    ... Integrals (i,b|a,c) will be made on the fly
SORTING OF ALPHA/ALPHA PAIRS
IBATCH = 1 of  1
Closing buffer IPAQ[aa]  0.16 GB; CompressionRatio= 1.00)
SORTING OF BETA /BETA  PAIRS
IBATCH = 1 of  1
Closing buffer IPAQ[bb]( 0.15 GB; CompressionRatio= 1.00)
SORTING OF ALPHA/BETA  PAIRS (NMatSort_ab=68)
IBATCH = 1 of  1
Closing buffer IPAQ[ab]( 0.16 GB; CompressionRatio= 1.00)
SORTING OF BETA/ALPHA  PAIRS
IBATCH = 1 of  1
Closing buffer IPAQ[ba]( 0.14 GB; CompressionRatio= 1.00)
N(AO-Batches) Done                         ...    151882 
N(AO-Batches) Skipped                      ...         0 
N(IJ)-pairs Skipped                        ...         0 
TOTAL TIME for half transformation         ...    17.073 sec
AO-integral generation                     ...     0.286 sec
Half transformation                        ...     1.495 sec
K-integral sorting                         ...     3.317 sec

------------------------------
PARTIAL COULOMB TRANSFORMATION
------------------------------

Transformation type                        ... two-operators
Dimension of the basis                     ...  146
Number of internal alpha-MOs               ...    9 (3-11)
Number of internal beta-MOs                ...    8 (3-10)
Pair cutoff                                ... 0.000e+00 Eh
Number of AO pairs included in the trafo   ... 10731
Total Number of distinct AO pairs          ... 10731
Memory devoted for trafo                   ... 4666.0 MB 
Max. Number of MO pairs treated together   ... 56992      
Max. Number of MOs treated per batch       ...  390      
Number Format for Storage                  ... Double (8 Byte)
AO-integral source                         ... DIRECT
Integral package used                      ... LIBINT

Starting integral evaluation:
<ss|**>:       415224 b        0 skpd     0.059 s (  0.000 ms/b)
<sp|**>:       558846 b        0 skpd     0.052 s (  0.000 ms/b)
<sd|**>:       324216 b        0 skpd     0.051 s (  0.000 ms/b)
<sf|**>:       100962 b        0 skpd     0.036 s (  0.000 ms/b)
<pp|**>:       207612 b        0 skpd     0.036 s (  0.000 ms/b)
<pd|**>:       223254 b        0 skpd     0.055 s (  0.000 ms/b)
<pf|**>:        69678 b        0 skpd     0.029 s (  0.000 ms/b)
<dd|**>:        72522 b        0 skpd     0.028 s (  0.000 ms/b)
<df|**>:        41238 b        0 skpd     0.031 s (  0.001 ms/b)
<ff|**>:         8532 b        0 skpd     0.026 s (  0.003 ms/b)
Closing buffer AOJ[aa] ( 0.00 GB; CompressionRatio= 0.97)
Closing buffer AOJ[bb] ( 0.00 GB; CompressionRatio= 0.96)
Collecting buffer AOJ 
    ... done with AO integral generation
Number of Alpha-MO pairs included          ...   45
Number of Beta-MO pairs included           ...   36
    ... Now sorting integrals
SORTING ALPHA/ALPHA PAIRS
IBATCH = 1 of  1
Closing buffer JAO[aa] ( 0.00 GB; CompressionRatio= 1.00)
SORTING BETA/BETA PAIRS
IBATCH = 1 of  1
Closing buffer JAO[bb] ( 0.00 GB; CompressionRatio= 1.00)
Collecting buffer JAO 
TOTAL TIME for half transformation         ...     0.546 sec
AO-integral generation                     ...     0.335 sec
Half transformation                        ...     0.070 sec
J-integral sorting                         ...     0.104 sec

-------------------------- SECOND HALF TRANSFORMATION -------------------------
Formation of (ij|kl),(ij|ka), (ij|ab)      ... ok (     0.085 sec)
Formation of (ik|jl),(ik|ja), (ia|jb)      ... ok (     0.129 sec)


-----------------------
SPIN UNRESTRICTED GUESS
-----------------------

UHF-GUESS: QRO flag is detected
Spin-components of the MP2 energy:
EMP2(aa)=     -0.064414029
EMP2(bb)=     -0.048615714
EMP2(ab)=     -0.386146305
EMP2(a) =     -0.001622987
EMP2(b) =     -0.001585785

Initial guess performed in     0.042 sec
E(0)                                       ...   -132.431286521
E(MP2)                                     ...     -0.502384819
Initial E(tot)                             ...   -132.933671341
<T|T>                                      ...      0.170408928
Number of pairs included                   ... 136

------------------------------------------------
                  UHF COUPLED CLUSTER ITERATIONS
------------------------------------------------

Number of amplitudes to be optimized       ...      1881967

Iter       E(tot)           E(Corr)          Delta-E          Residual     Time      <S|S>**1/2
  0   -132.933718970     -0.502432449     -0.000047629      0.022029415    4.90      0.027455972
[...]
Sum of atomic spin densities:    1.0000000

---------------------------------------------------
MULLIKEN REDUCED ORBITAL CHARGES AND SPIN DENSITIES
---------------------------------------------------
CHARGE
  0 C s       :     3.350623  s :     3.350623
      pz      :     0.923479  p :     2.734847
      px      :     0.899474
      py      :     0.911894
      dz2     :     0.010871  d :     0.068994
      dxz     :     0.015044
      dyz     :     0.013472
      dx2y2   :     0.012568
      dxy     :     0.017040
      f0      :     0.000773  f :     0.010537
      f+1     :     0.001845
      f-1     :     0.001548
      f+2     :     0.001846
      f-2     :     0.001214
      f+3     :     0.001800
      f-3     :     0.001511
  1 C s       :     3.349697  s :     3.349697
      pz      :     0.950398  p :     2.813159
      px      :     0.924788
      py      :     0.937973
      dz2     :     0.010890  d :     0.071795
      dxz     :     0.016004
      dyz     :     0.014217
      dx2y2   :     0.012302
      dxy     :     0.018383
      f0      :     0.000782  f :     0.010547
      f+1     :     0.001840
      f-1     :     0.001545
      f+2     :     0.001840
      f-2     :     0.001230
      f+3     :     0.001796
      f-3     :     0.001513
  2 H s       :     0.786416  s :     0.786416
      pz      :     0.009663  p :     0.027590
      px      :     0.008734
      py      :     0.009193
      dz2     :     0.000288  d :     0.002051
      dxz     :     0.000468
      dyz     :     0.000405
      dx2y2   :     0.000339
      dxy     :     0.000551
  3 N s       :     3.739856  s :     3.739856
      pz      :     1.176142  p :     3.495935
      px      :     1.171590
      py      :     1.148203
      dz2     :     0.014888  d :     0.051331
      dxz     :     0.008881
      dyz     :     0.007346
      dx2y2   :     0.006771
      dxy     :     0.013445
      f0      :     0.000831  f :     0.003442
      f+1     :     0.000428
      f-1     :     0.000422
      f+2     :     0.000415
      f-2     :     0.000528
      f+3     :     0.000426
      f-3     :     0.000391
  4 H s       :     0.769303  s :     0.769303
      pz      :     0.021659  p :     0.056090
      px      :     0.017882
      py      :     0.016549
      dz2     :     0.001044  d :     0.004641
      dxz     :     0.000665
      dyz     :     0.000819
      dx2y2   :     0.000898
      dxy     :     0.001215
  5 H s       :     0.769329  s :     0.769329
      pz      :     0.014995  p :     0.056084
      px      :     0.020660
      py      :     0.020429
      dz2     :     0.001530  d :     0.004645
      dxz     :     0.001456
      dyz     :     0.001381
      dx2y2   :     0.000147
      dxy     :     0.000132
  6 H s       :     0.800975  s :     0.800975
      pz      :     0.007348  p :     0.020149
      px      :     0.006063
      py      :     0.006737
      dz2     :     0.000259  d :     0.001963
      dxz     :     0.000458
      dyz     :     0.000394
      dx2y2   :     0.000305
      dxy     :     0.000549

SPIN
  0 C s       :     0.000644  s :     0.000644
      pz      :     0.000184  p :     0.000950
      px      :     0.000469
      py      :     0.000297
      dz2     :     0.000011  d :     0.000331
      dxz     :     0.000085
      dyz     :     0.000075
      dx2y2   :     0.000053
      dxy     :     0.000108
      f0      :    -0.000002  f :    -0.000011
      f+1     :    -0.000000
      f-1     :    -0.000000
      f+2     :    -0.000000
      f-2     :    -0.000005
      f+3     :    -0.000001
      f-3     :    -0.000002
  1 C s       :    -0.000588  s :    -0.000588
      pz      :     0.000010  p :     0.000058
      px      :    -0.000016
      py      :     0.000065
      dz2     :    -0.000001  d :    -0.000167
      dxz     :    -0.000054
      dyz     :    -0.000042
      dx2y2   :     0.000007
      dxy     :    -0.000076
      f0      :     0.000000  f :    -0.000001
      f+1     :    -0.000000
      f-1     :    -0.000000
      f+2     :    -0.000000
      f-2     :    -0.000000
      f+3     :    -0.000000
      f-3     :    -0.000000
  2 H s       :    -0.000083  s :    -0.000083
      pz      :    -0.000002  p :    -0.000011
      px      :    -0.000006
      py      :    -0.000003
      dz2     :     0.000000  d :     0.000001
      dxz     :     0.000000
      dyz     :     0.000000
      dx2y2   :     0.000001
      dxy     :     0.000000
  3 N s       :     0.042940  s :     0.042940
      pz      :     0.044279  p :     1.016392
      px      :     0.496223
      py      :     0.475889
      dz2     :     0.000226  d :     0.007928
      dxz     :     0.001362
      dyz     :     0.001120
      dx2y2   :     0.003338
      dxy     :     0.001882
      f0      :    -0.000159  f :    -0.000168
      f+1     :    -0.000005
      f-1     :     0.000051
      f+2     :     0.000085
      f-2     :    -0.000040
      f+3     :    -0.000079
      f-3     :    -0.000021
  4 H s       :    -0.040441  s :    -0.040441
      pz      :    -0.002173  p :     0.010904
      px      :     0.006574
      py      :     0.006503
      dz2     :     0.000028  d :     0.000871
      dxz     :     0.000134
      dyz     :     0.000009
      dx2y2   :     0.000731
      dxy     :    -0.000031
  5 H s       :    -0.040518  s :    -0.040518
      pz      :     0.000772  p :     0.010941
      px      :     0.005363
      py      :     0.004806
      dz2     :     0.000080  d :     0.000872
      dxz     :     0.000376
      dyz     :     0.000349
      dx2y2   :     0.000038
      dxy     :     0.000030
  6 H s       :    -0.010864  s :    -0.010864
      pz      :     0.000019  p :     0.000013
      px      :     0.000004
      py      :    -0.000010
      dz2     :     0.000000  d :     0.000005
      dxz     :     0.000001
      dyz     :     0.000001
      dx2y2   :     0.000003
      dxy     :    -0.000000


                     *******************************
                     * LOEWDIN POPULATION ANALYSIS *
                     *******************************

-----------------------------------------
LOEWDIN ATOMIC CHARGES AND SPIN DENSITIES
-----------------------------------------
   0 C :    0.058122   -0.001557
   1 C :    0.039943    0.000349
   2 H :   -0.065501    0.000022
   3 N :    0.311229    0.895576
   4 H :   -0.128686    0.054853
   5 H :   -0.128729    0.054868
   6 H :   -0.086377   -0.004111

--------------------------------------------------
LOEWDIN REDUCED ORBITAL CHARGES AND SPIN DENSITIES
--------------------------------------------------
CHARGE
  0 C s       :     2.829052  s :     2.829052
      pz      :     0.938737  p :     2.878027
      px      :     0.980197
      py      :     0.959093
      dz2     :     0.033352  d :     0.197724
      dxz     :     0.040814
      dyz     :     0.035831
      dx2y2   :     0.041604
      dxy     :     0.046122
      f0      :     0.003960  f :     0.037075
      f+1     :     0.004397
      f-1     :     0.003573
      f+2     :     0.004372
      f-2     :     0.009705
      f+3     :     0.005301
      f-3     :     0.005767
  1 C s       :     2.821878  s :     2.821878
      pz      :     0.949988  p :     2.905306
      px      :     0.987062
      py      :     0.968256
      dz2     :     0.032079  d :     0.195947
      dxz     :     0.041164
      dyz     :     0.035987
      dx2y2   :     0.039799
      dxy     :     0.046918
      f0      :     0.004024  f :     0.036925
      f+1     :     0.004287
      f-1     :     0.003487
      f+2     :     0.004259
      f-2     :     0.009876
      f+3     :     0.005228
      f-3     :     0.005763
  2 H s       :     0.855826  s :     0.855826
      pz      :     0.055697  p :     0.178725
      px      :     0.063498
      py      :     0.059530
      dz2     :     0.005338  d :     0.030950
      dxz     :     0.006247
      dyz     :     0.005427
      dx2y2   :     0.006883
      dxy     :     0.007056
  3 N s       :     3.146865  s :     3.146865
      pz      :     1.213424  p :     3.448044
      px      :     1.125989
      py      :     1.108631
      dz2     :     0.034047  d :     0.085112
      dxz     :     0.013525
      dyz     :     0.011500
      dx2y2   :     0.005656
      dxy     :     0.020383
      f0      :     0.002505  f :     0.008750
      f+1     :     0.001498
      f-1     :     0.000961
      f+2     :     0.000444
      f-2     :     0.001486
      f+3     :     0.001023
      f-3     :     0.000833
  4 H s       :     0.793069  s :     0.793069
      pz      :     0.071333  p :     0.277727
      px      :     0.101356
      py      :     0.105038
      dz2     :     0.011445  d :     0.057891
      dxz     :     0.008220
      dyz     :     0.010143
      dx2y2   :     0.012816
      dxy     :     0.015268
  5 H s       :     0.793104  s :     0.793104
      pz      :     0.134127  p :     0.277730
      px      :     0.075142
      py      :     0.068460
      dz2     :     0.019950  d :     0.057896
      dxz     :     0.018764
      dyz     :     0.017836
      dx2y2   :     0.000726
      dxy     :     0.000619
  6 H s       :     0.853869  s :     0.853869
      pz      :     0.060653  p :     0.202344
      px      :     0.074239
      py      :     0.067452
      dz2     :     0.005086  d :     0.030163
      dxz     :     0.006163
      dyz     :     0.005341
      dx2y2   :     0.006558
      dxy     :     0.007015

SPIN
  0 C s       :    -0.000413  s :    -0.000413
      pz      :    -0.000348  p :    -0.001193
      px      :    -0.000450
      py      :    -0.000394
      dz2     :     0.000012  d :     0.000036
      dxz     :    -0.000011
      dyz     :    -0.000001
      dx2y2   :     0.000060
      dxy     :    -0.000024
      f0      :     0.000001  f :     0.000013
      f+1     :     0.000002
      f-1     :     0.000001
      f+2     :     0.000003
      f-2     :     0.000002
      f+3     :     0.000002
      f-3     :     0.000002
  1 C s       :    -0.000034  s :    -0.000034
      pz      :     0.000115  p :     0.000504
      px      :     0.000185
      py      :     0.000204
      dz2     :    -0.000011  d :    -0.000110
      dxz     :    -0.000026
      dyz     :    -0.000022
      dx2y2   :    -0.000018
      dxy     :    -0.000032
      f0      :    -0.000000  f :    -0.000011
      f+1     :    -0.000002
      f-1     :    -0.000002
      f+2     :    -0.000002
      f-2     :    -0.000001
      f+3     :    -0.000002
      f-3     :    -0.000002
  2 H s       :    -0.000031  s :    -0.000031
      pz      :     0.000011  p :     0.000044
      px      :     0.000016
      py      :     0.000017
      dz2     :     0.000002  d :     0.000009
      dxz     :     0.000001
      dyz     :     0.000001
      dx2y2   :     0.000004
      dxy     :     0.000001
  3 N s       :     0.019180  s :     0.019180
      pz      :     0.026543  p :     0.871129
      px      :     0.431145
      py      :     0.413441
      dz2     :    -0.000406  d :     0.004603
      dxz     :     0.000529
      dyz     :     0.000718
      dx2y2   :     0.002108
      dxy     :     0.001655
      f0      :    -0.000197  f :     0.000663
      f+1     :     0.000122
      f-1     :     0.000224
      f+2     :     0.000103
      f-2     :     0.000062
      f+3     :     0.000110
      f-3     :     0.000240
  4 H s       :    -0.020133  s :    -0.020133
      pz      :     0.001080  p :     0.058885
      px      :     0.029140
      py      :     0.028666
      dz2     :     0.000639  d :     0.016101
      dxz     :     0.002128
      dyz     :     0.000902
      dx2y2   :     0.012124
      dxy     :     0.000307
  5 H s       :    -0.020136  s :    -0.020136
      pz      :     0.006521  p :     0.058900
      px      :     0.026876
      py      :     0.025503
      dz2     :     0.001398  d :     0.016104
      dxz     :     0.007038
      dyz     :     0.007128
      dx2y2   :     0.000329
      dxy     :     0.000211
  6 H s       :    -0.001913  s :    -0.001913
      pz      :    -0.000595  p :    -0.002182
      px      :    -0.000895
      py      :    -0.000692
      dz2     :    -0.000003  d :    -0.000016
      dxz     :    -0.000010
      dyz     :    -0.000005
      dx2y2   :     0.000019
      dxy     :    -0.000017


                      *****************************
                      * MAYER POPULATION ANALYSIS *
                      *****************************

  NA   - Mulliken gross atomic population
  ZA   - Total nuclear charge
  QA   - Mulliken gross atomic charge
  VA   - Mayer's total valence
  BVA  - Mayer's bonded valence
  FA   - Mayer's free valence

  ATOM       NA         ZA         QA         VA         BVA        FA
  0 C      6.1650     6.0000    -0.1650     3.7152     3.2557     0.4595
  1 C      6.2452     6.0000    -0.2452     3.8777     3.4211     0.4566
  2 H      0.8161     1.0000     0.1839     0.9793     0.9142     0.0651
  3 N      7.2906     7.0000    -0.2906     3.1875     1.9155     1.2720
  4 H      0.8300     1.0000     0.1700     1.0026     0.9293     0.0733
  5 H      0.8301     1.0000     0.1699     1.0026     0.9293     0.0733
  6 H      0.8231     1.0000     0.1769     1.0683     1.0030     0.0653

  Mayer bond orders larger than 0.100000
B(  0-C ,  1-C ) :   2.5012 B(  0-C ,  6-H ) :   0.8206 B(  1-C ,  2-H ) :   0.8923 
B(  3-N ,  4-H ) :   0.9151 B(  3-N ,  5-H ) :   0.9151 B(  3-N ,  6-H ) :   0.1542 




------------------------------------------------------------------------------- 
                                     TIMINGS                                   
------------------------------------------------------------------------------- 


Total execution time                   ...       54.916 sec

Fock Matrix Formation                  ...        0.249 sec (  0.5%)
Initial Guess                          ...        0.042 sec (  0.1%)
DIIS Solver                            ...        1.323 sec (  2.4%)
State Vector Update                    ...        0.081 sec (  0.1%)
Sigma-vector construction              ...       31.130 sec ( 56.7%)
  <0|H|D>                              ...        0.006 sec (  0.0% of sigma)
  <D|H|D>(0-ext Fock)                  ...        0.030 sec (  0.1% of sigma)
  <D|H|D>(0-ext)                       ...        0.107 sec (  0.3% of sigma)
  <D|H|D>(2-ext Fock)                  ...        0.032 sec (  0.1% of sigma)
  <D|H|D>(2-ext)                       ...        1.144 sec (  3.7% of sigma)
  <D|H|D>(4-ext)                       ...       21.205 sec ( 68.1% of sigma)
  <S|H|0>                              ...        1.264 sec (  4.1% of sigma)
  <S|H|S>                              ...        0.001 sec (  0.0% of sigma)
  <S|H|D>(1-ext)                       ...        0.011 sec (  0.0% of sigma)
  <D|H|S>(1-ext)                       ...        0.094 sec (  0.3% of sigma)
  Fock-dressing                        ...        2.026 sec (  6.5% of sigma)
  (ik|jl)-dressing                     ...        0.123 sec (  0.4% of sigma)
  (ij|ab),(ia|jb)-dressing             ...        4.299 sec ( 13.8% of sigma)
  Pair energies                        ...        0.007 sec (  0.0% of sigma)
Total Time for computing (T)           ...        7.608 sec ( 13.9% of ALL)
  I/O of integral and amplitudes       ...        1.211 sec ( 15.9% of (T))
  External N**7 contributions          ...        4.344 sec ( 57.1% of (T))
  Internal N**7 contributions          ...        0.400 sec (  5.3% of (T))
  N**6 triples energy contributions    ...        1.588 sec ( 20.9% of (T))


Maximum memory used throughout the entire MDCI-calculation: 2488.5 MB

-------------------------   --------------------
FINAL SINGLE POINT ENERGY      -132.986982792656
-------------------------   --------------------

                                *** OPTIMIZATION RUN DONE ***

                            ***************************************
                            *     ORCA property calculations      *
                            ***************************************

                                    ---------------------
                                    Active property flags
                                    ---------------------
   (+) Dipole Moment


------------------------------------------------------------------------------
                       ORCA ELECTRIC PROPERTIES CALCULATION
------------------------------------------------------------------------------

Dipole Moment Calculation                       ... on
Quadrupole Moment Calculation                   ... off
Polarizability Calculation                      ... off
GBWName                                         ... OPT.gbw
Electron density                                ... OPT.scfp
The origin for moment calculation is the CENTER OF MASS  = (-0.536216, -0.337586  0.503325)

-------------
DIPOLE MOMENT
-------------
                                X             Y             Z
Electronic contribution:     -1.20561       1.07671      -0.91798
Nuclear contribution   :      1.86618      -1.66896       1.41644
                        -----------------------------------------
Total Dipole Moment    :      0.66057      -0.59225       0.49846
                        -----------------------------------------
Magnitude (a.u.)       :      1.01763
Magnitude (Debye)      :      2.58661



--------------------
Rotational spectrum 
--------------------
 
Rotational constants in cm-1:    12.962439     0.094646     0.093960 
Rotational constants in MHz : 388604.153775  2837.425720  2816.858697 

 Dipole components along the rotational axes: 
x,y,z [a.u.] :     1.017607    -0.006698    -0.001512 
x,y,z [Debye]:     2.586551    -0.017025    -0.003844 

 

                           *** MDCI DENSITY ***

------------------------------------------------------------------------------
                       ORCA ELECTRIC PROPERTIES CALCULATION
------------------------------------------------------------------------------

Dipole Moment Calculation                       ... on
Quadrupole Moment Calculation                   ... off
Polarizability Calculation                      ... off
GBWName                                         ... OPT.gbw
Electron density                                ... OPT.mdcip
The origin for moment calculation is the CENTER OF MASS  = (-0.536216, -0.337586  0.503325)

-------------
DIPOLE MOMENT
-------------
                                X             Y             Z
Electronic contribution:     -1.23000       1.09857      -0.93636
Nuclear contribution   :      1.86618      -1.66896       1.41644
                        -----------------------------------------
Total Dipole Moment    :      0.63618      -0.57039       0.48008
                        -----------------------------------------
Magnitude (a.u.)       :      0.98008
Magnitude (Debye)      :      2.49116



--------------------
Rotational spectrum 
--------------------
 
Rotational constants in cm-1:    12.962439     0.094646     0.093960 
Rotational constants in MHz : 388604.153775  2837.425720  2816.858697 

 Dipole components along the rotational axes: 
x,y,z [a.u.] :     0.980054    -0.006439    -0.001463 
x,y,z [Debye]:     2.491100    -0.016367    -0.003718 

 

Timings for individual modules:

Sum of individual times         ...    36106.154 sec (= 601.769 min)
GTO integral calculation        ...      190.485 sec (=   3.175 min)   0.5 %
SCF iterations                  ...      297.816 sec (=   4.964 min)   0.8 %
MDCI module                     ...     2483.299 sec (=  41.388 min)   6.9 %
SCF Gradient evaluation         ...    33131.337 sec (= 552.189 min)  91.8 %
Geometry relaxation             ...        3.216 sec (=   0.054 min)   0.0 %
                             ****ORCA TERMINATED NORMALLY****
TOTAL RUN TIME: 0 days 10 hours 5 minutes 7 seconds 330 msec
